 Entering Gaussian System, Link 0=g09
 Initial command:
 /usr/local/apps/g09.c01/g09/l1.exe /gpfs_share/che596/gaussian_examples/Azo/Part2/Gau-12181.inp -scrdir=/gpfs_share/che596/gaussian_examples/Azo/Part2/
 Entering Link 1 = /usr/local/apps/g09.c01/g09/l1.exe PID=     12182.
  
 Copyright (c) 1988,1990,1992,1993,1995,1998,2003,2009,2011,
            Gaussian, Inc.  All Rights Reserved.
  
 This is part of the Gaussian(R) 09 program.  It is based on
 the Gaussian(R) 03 system (copyright 2003, Gaussian, Inc.),
 the Gaussian(R) 98 system (copyright 1998, Gaussian, Inc.),
 the Gaussian(R) 94 system (copyright 1995, Gaussian, Inc.),
 the Gaussian 92(TM) system (copyright 1992, Gaussian, Inc.),
 the Gaussian 90(TM) system (copyright 1990, Gaussian, Inc.),
 the Gaussian 88(TM) system (copyright 1988, Gaussian, Inc.),
 the Gaussian 86(TM) system (copyright 1986, Carnegie Mellon
 University), and the Gaussian 82(TM) system (copyright 1983,
 Carnegie Mellon University). Gaussian is a federally registered
 trademark of Gaussian, Inc.
  
 This software contains proprietary and confidential information,
 including trade secrets, belonging to Gaussian, Inc.
  
 This software is provided under written license and may be
 used, copied, transmitted, or stored only in accord with that
 written license.
  
 The following legend is applicable only to US Government
 contracts under FAR:
  
                    RESTRICTED RIGHTS LEGEND
  
 Use, reproduction and disclosure by the US Government is
 subject to restrictions as set forth in subparagraphs (a)
 and (c) of the Commercial Computer Software - Restricted
 Rights clause in FAR 52.227-19.
  
 Gaussian, Inc.
 340 Quinnipiac St., Bldg. 40, Wallingford CT 06492
  
  
 ---------------------------------------------------------------
 Warning -- This program may not be used in any manner that
 competes with the business of Gaussian, Inc. or will provide
 assistance to any competitor of Gaussian, Inc.  The licensee
 of this program is prohibited from giving any competitor of
 Gaussian, Inc. access to this program.  By using this program,
 the user acknowledges that Gaussian, Inc. is engaged in the
 business of creating and licensing software in the field of
 computational chemistry and represents and warrants to the
 licensee that it is not a competitor of Gaussian, Inc. and that
 it will not use this program in any manner prohibited above.
 ---------------------------------------------------------------
  

 Cite this work as:
 Gaussian 09, Revision C.01,
 M. J. Frisch, G. W. Trucks, H. B. Schlegel, G. E. Scuseria, 
 M. A. Robb, J. R. Cheeseman, G. Scalmani, V. Barone, B. Mennucci, 
 G. A. Petersson, H. Nakatsuji, M. Caricato, X. Li, H. P. Hratchian, 
 A. F. Izmaylov, J. Bloino, G. Zheng, J. L. Sonnenberg, M. Hada, 
 M. Ehara, K. Toyota, R. Fukuda, J. Hasegawa, M. Ishida, T. Nakajima, 
 Y. Honda, O. Kitao, H. Nakai, T. Vreven, J. A. Montgomery, Jr., 
 J. E. Peralta, F. Ogliaro, M. Bearpark, J. J. Heyd, E. Brothers, 
 K. N. Kudin, V. N. Staroverov, T. Keith, R. Kobayashi, J. Normand, 
 K. Raghavachari, A. Rendell, J. C. Burant, S. S. Iyengar, J. Tomasi, 
 M. Cossi, N. Rega, J. M. Millam, M. Klene, J. E. Knox, J. B. Cross, 
 V. Bakken, C. Adamo, J. Jaramillo, R. Gomperts, R. E. Stratmann, 
 O. Yazyev, A. J. Austin, R. Cammi, C. Pomelli, J. W. Ochterski, 
 R. L. Martin, K. Morokuma, V. G. Zakrzewski, G. A. Voth, 
 P. Salvador, J. J. Dannenberg, S. Dapprich, A. D. Daniels, 
 O. Farkas, J. B. Foresman, J. V. Ortiz, J. Cioslowski, 
 and D. J. Fox, Gaussian, Inc., Wallingford CT, 2010.
 
 ******************************************
 Gaussian 09:  EM64L-G09RevC.01 23-Sep-2011
                17-Oct-2019 
 ******************************************
 %NProcShared=4
 Will use up to    4 processors via shared memory.
 %Mem=2GB
 %Chk=azo.chk
 ----------------------------------------
 #n CIS(D)/6-31G(d) SP Geom=AllCheckpoint
 ----------------------------------------
 1/29=7,38=1/1;
 2/12=2,40=1/2;
 3/5=1,6=6,7=1,11=9,14=-4,16=1,25=1,30=1/1,2,8,3;
 4//1;
 5/5=2,38=5/2;
 8/6=1,10=2/1,4;
 9/23=4,42=3/14;
 6/7=2,8=2,9=2,10=2/1;
 99/5=1,9=1/99;
 Structure from the checkpoint file:  azo.chk
 ---
 Azo
 ---
 Charge =  0 Multiplicity = 1
 Redundant internal coordinates found in file.
 C,0,-0.0027359536,0.,0.0047567006
 C,0,0.0001898606,0.,1.3986122223
 C,0,1.212203891,0.,2.1018692902
 H,0,-0.9241323968,0.,1.9683956013
 C,0,1.2067184412,0.,-0.6921860884
 H,0,-0.9451202979,0.,-0.5359481691
 C,0,2.4295582768,0.,1.3987469203
 C,0,2.4196393823,0.,0.0089665531
 H,0,1.2086651205,0.,-1.7788971142
 H,0,3.3574506103,0.,1.9595888553
 H,0,3.3596686849,0.,-0.5367401636
 N,0,1.0938709612,0.,3.5154660083
 N,0,2.1902400894,0.,4.1379256047
 C,0,2.0721191051,0.,5.5515619462
 C,0,0.8548890984,0.,6.2549064371
 C,0,0.8650539812,0.,7.6446851205
 H,0,-0.0730994056,0.,5.6942325618
 C,0,3.2842506303,0.,6.2546201225
 C,0,3.2874227275,0.,7.6484790246
 H,0,4.2084773979,0.,5.684683688
 C,0,2.0780945096,0.,8.3456316214
 H,0,-0.0748788822,0.,8.1905575817
 H,0,2.0763344896,0.,9.4323432116
 H,0,4.2299030312,0.,8.1890172179
 Recover connectivity data from disk.
                          Input orientation:                          
 ---------------------------------------------------------------------
 Center     Atomic      Atomic             Coordinates (Angstroms)
 Number     Number       Type             X           Y           Z
 ---------------------------------------------------------------------
      1          6           0       -0.002736    0.000000    0.004757
      2          6           0        0.000190    0.000000    1.398612
      3          6           0        1.212204    0.000000    2.101869
      4          1           0       -0.924132    0.000000    1.968396
      5          6           0        1.206718    0.000000   -0.692186
      6          1           0       -0.945120    0.000000   -0.535948
      7          6           0        2.429558    0.000000    1.398747
      8          6           0        2.419639    0.000000    0.008967
      9          1           0        1.208665    0.000000   -1.778897
     10          1           0        3.357451    0.000000    1.959589
     11          1           0        3.359669    0.000000   -0.536740
     12          7           0        1.093871    0.000000    3.515466
     13          7           0        2.190240    0.000000    4.137926
     14          6           0        2.072119    0.000000    5.551562
     15          6           0        0.854889    0.000000    6.254906
     16          6           0        0.865054    0.000000    7.644685
     17          1           0       -0.073099    0.000000    5.694233
     18          6           0        3.284251    0.000000    6.254620
     19          6           0        3.287423    0.000000    7.648479
     20          1           0        4.208477    0.000000    5.684684
     21          6           0        2.078095    0.000000    8.345632
     22          1           0       -0.074879    0.000000    8.190558
     23          1           0        2.076334    0.000000    9.432343
     24          1           0        4.229903    0.000000    8.189017
 ---------------------------------------------------------------------
                    Distance matrix (angstroms):
                    1          2          3          4          5
     1  C    0.000000
     2  C    1.393859   0.000000
     3  C    2.423625   1.401267   0.000000
     4  H    2.169066   1.085829   2.140502   0.000000
     5  C    1.395890   2.413949   2.794061   3.408698   0.000000
     6  H    1.086485   2.153169   3.407657   2.504432   2.157503
     7  C    2.803438   2.429368   1.405821   3.401726   2.422259
     8  C    2.422379   2.790135   2.416225   3.875587   1.400997
     9  H    2.156134   3.399556   3.880768   4.311731   1.086713
    10  H    3.887444   3.403806   2.149960   4.281592   3.414317
    11  H    3.405728   3.877072   3.402038   4.962525   2.158555
    12  N    3.677992   2.382689   1.418541   2.542787   4.209165
    13  N    4.678913   3.507158   2.258778   3.795547   4.929229
    14  C    5.922168   4.641108   3.555254   4.670825   6.303436
    15  C    6.308716   4.930933   4.168380   4.641023   6.955996
    16  C    7.689055   6.305665   5.553676   5.951592   8.343869
    17  H    5.689911   4.296246   3.815374   3.821795   6.513392
    18  C    7.061521   5.862241   4.640982   6.006847   7.250811
    19  C    8.321757   7.061638   5.922112   7.071106   8.596280
    20  H    7.070777   6.006671   4.670569   6.336756   7.048051
    21  C    8.596514   7.251122   6.303518   7.048582   9.079727
    22  H    8.186119   6.792360   6.223239   6.279851   8.974722
    23  H    9.654114   8.297663   7.381231   8.044459  10.161807
    24  H    9.213976   8.000005   6.794106   8.078379   9.381653
                    6          7          8          9         10
     6  H    0.000000
     7  C    3.889923   0.000000
     8  C    3.408598   1.389816   0.000000
     9  H    2.486707   3.404115   2.159378   0.000000
    10  H    4.973914   1.084218   2.164351   4.312025   0.000000
    11  H    4.304789   2.147374   1.086946   2.483902   2.496330
    12  N    4.535575   2.502910   3.748760   5.295607   2.746734
    13  N    5.628106   2.749613   4.135327   5.997690   2.471342
    14  C    6.794226   4.168169   5.553479   7.381137   3.815016
    15  C    7.025364   5.105083   6.438960   8.041589   4.971174
    16  C    8.378514   6.438899   7.792364   9.429845   6.207444
    17  H    6.290912   4.971367   6.207737   7.582255   5.071118
    18  C    7.999962   4.930518   6.305215   8.297316   4.295655
    19  C    9.214080   6.308334   7.688641   9.653841   5.689321
    20  H    8.078108   4.640453   5.950942   8.043874   3.821070
    21  C    9.382019   6.955770   8.343659  10.161791   6.512933
    22  H    8.769790   7.238846   8.553423  10.051742   7.113779
    23  H   10.416142   8.041358   9.429628  11.244766   7.581775
    24  H   10.144254   7.024885   8.377964  10.415719   6.290227
                   11         12         13         14         15
    11  H    0.000000
    12  N    4.642652   0.000000
    13  N    4.818720   1.260746   0.000000
    14  C    6.222958   2.258906   1.418563   0.000000
    15  C    7.238811   2.749845   2.502952   1.405824   0.000000
    16  C    8.553293   4.135554   3.748797   2.416231   1.389816
    17  H    7.113995   2.471607   2.746779   2.149958   1.084213
    18  C    6.791779   3.507239   2.382699   1.401269   2.429362
    19  C    8.185538   4.679045   3.678015   2.423639   2.803438
    20  H    6.279060   3.795560   2.542782   2.140502   3.401721
    21  C    8.974350   4.929421   4.209200   2.794076   2.422264
    22  H    9.378798   4.818969   4.642692   3.402043   2.147374
    23  H   10.051347   5.997889   5.295643   3.880784   3.404120
    24  H    8.769045   5.628213   4.535589   3.407668   3.889923
                   16         17         18         19         20
    16  C    0.000000
    17  H    2.164347   0.000000
    18  C    2.790124   3.403797   0.000000
    19  C    2.422372   3.887440   1.393863   0.000000
    20  H    3.875576   4.281587   1.085828   2.169063   0.000000
    21  C    1.400997   3.414316   2.413947   1.395886   3.408691
    22  H    1.086946   2.496326   3.877061   3.405719   4.962514
    23  H    2.159380   4.312022   3.399557   2.156132   4.311726
    24  H    3.408593   4.973910   2.153172   1.086485   2.504425
                   21         22         23         24
    21  C    0.000000
    22  H    2.158551   0.000000
    23  H    1.086713   2.483898   0.000000
    24  H    2.157500   4.304782   2.486708   0.000000
 Stoichiometry    C12H10N2
 Framework group  CS[SG(C12H10N2)]
 Deg. of freedom    45
 Full point group                 CS      NOp   2
 Largest Abelian subgroup         CS      NOp   2
 Largest concise Abelian subgroup C1      NOp   1
                         Standard orientation:                         
 ---------------------------------------------------------------------
 Center     Atomic      Atomic             Coordinates (Angstroms)
 Number     Number       Type             X           Y           Z
 ---------------------------------------------------------------------
      1          6           0       -2.511061    3.317823    0.000000
      2          6           0       -1.300469    2.626947    0.000000
      3          6           0       -1.287480    1.225741    0.000000
      4          1           0       -0.348550    3.149320    0.000000
      5          6           0       -3.714361    2.610307    0.000000
      6          1           0       -2.515854    4.404298    0.000000
      7          6           0       -2.500055    0.514407    0.000000
      8          6           0       -3.703649    1.209351    0.000000
      9          1           0       -4.660279    3.145268    0.000000
     10          1           0       -2.470595   -0.569410    0.000000
     11          1           0       -4.642390    0.661431    0.000000
     12          7           0        0.000159    0.630557    0.000000
     13          7           0        0.000000   -0.630189    0.000000
     14          6           0        1.287569   -1.225576    0.000000
     15          6           0        2.500275   -0.514461    0.000000
     16          6           0        3.703747   -1.209618    0.000000
     17          1           0        2.471009    0.569357    0.000000
     18          6           0        1.300328   -2.626787    0.000000
     19          6           0        2.510801   -3.317879    0.000000
     20          1           0        0.348322   -3.149001    0.000000
     21          6           0        3.714220   -2.610576    0.000000
     22          1           0        4.642584   -0.661863    0.000000
     23          1           0        4.660047   -3.145700    0.000000
     24          1           0        2.515401   -4.404355    0.000000
 ---------------------------------------------------------------------
 Rotational constants (GHZ):      2.7319198      0.2917693      0.2636151
 Standard basis: 6-31G(d) (6D, 7F)
 There are   174 symmetry adapted basis functions of A'  symmetry.
 There are    56 symmetry adapted basis functions of A"  symmetry.
 Integral buffers will be    131072 words long.
 Raffenetti 1 integral format.
 Two-electron integral symmetry is turned on.
   230 basis functions,   432 primitive gaussians,   230 cartesian basis functions
    48 alpha electrons       48 beta electrons
       nuclear repulsion energy       749.2145982884 Hartrees.
 NAtoms=   24 NActive=   24 NUniq=   24 SFac= 1.00D+00 NAtFMM=   60 NAOKFM=F Big=F
 One-electron integrals computed using PRISM.
 NBasis=   230 RedAO= T  NBF=   174    56
 NBsUse=   230 1.00D-06 NBFU=   174    56
 Harris functional with IExCor=  205 diagonalized for initial guess.
 ExpMin= 1.61D-01 ExpMax= 4.17D+03 ExpMxC= 6.27D+02 IAcc=1 IRadAn=         1 AccDes= 0.00D+00
 HarFok:  IExCor=  205 AccDes= 0.00D+00 IRadAn=         1 IDoV= 1
 ScaDFX=  1.000000  1.000000  1.000000  1.000000
 FoFCou: FMM=F IPFlag=           0 FMFlag=      100000 FMFlg1=           0
         NFxFlg=           0 DoJE=T BraDBF=F KetDBF=T FulRan=T
         Omega=  0.000000  0.000000  1.000000  0.000000  0.000000 ICntrl=     500 IOpCl=  0
         NMat0=    1 NMatS0=    1 NMatT0=    0 NMatD0=    1 NMtDS0=    0 NMtDT0=    0
         I1Cent=           4 NGrid=           0.
 Petite list used in FoFCou.
 Initial guess orbital symmetries:
       Occupied  (A') (A') (A') (A') (A') (A') (A') (A') (A') (A')
                 (A') (A') (A') (A') (A') (A') (A') (A') (A') (A')
                 (A') (A') (A') (A') (A') (A') (A') (A') (A') (A')
                 (A') (A') (A') (A') (A') (A") (A') (A') (A") (A')
                 (A') (A') (A") (A") (A") (A") (A") (A')
       Virtual   (A") (A") (A") (A") (A") (A') (A") (A') (A") (A')
                 (A') (A') (A') (A') (A') (A') (A') (A') (A') (A')
                 (A') (A') (A') (A') (A') (A') (A') (A') (A') (A')
                 (A') (A") (A") (A') (A') (A') (A') (A') (A') (A')
                 (A') (A") (A") (A') (A") (A') (A') (A") (A') (A')
                 (A') (A") (A") (A') (A") (A") (A") (A") (A') (A')
                 (A') (A') (A') (A') (A') (A") (A') (A') (A") (A')
                 (A') (A') (A') (A') (A') (A') (A') (A') (A') (A')
                 (A') (A') (A') (A') (A') (A') (A") (A') (A') (A")
                 (A') (A") (A") (A') (A") (A") (A') (A') (A") (A")
                 (A") (A") (A") (A") (A') (A') (A') (A") (A') (A')
                 (A') (A') (A') (A') (A') (A') (A') (A") (A') (A')
                 (A') (A') (A') (A') (A") (A') (A') (A') (A') (A')
                 (A") (A") (A') (A') (A") (A") (A") (A") (A") (A")
                 (A') (A") (A') (A') (A") (A') (A") (A') (A') (A')
                 (A') (A") (A') (A') (A") (A') (A') (A') (A') (A')
                 (A') (A') (A') (A') (A') (A') (A') (A') (A') (A')
                 (A') (A') (A') (A') (A') (A') (A') (A') (A') (A')
                 (A') (A')
 The electronic state of the initial guess is 1-A'.
 Requested convergence on RMS density matrix=1.00D-08 within 128 cycles.
 Requested convergence on MAX density matrix=1.00D-06.
 Requested convergence on             energy=1.00D-06.
 No special actions if energy rises.
 Integral accuracy reduced to 1.0D-05 until final iterations.
 Initial convergence to 1.0D-05 achieved.  Increase integral accuracy.
 SCF Done:  E(RHF) =  -569.095425718     A.U. after   15 cycles
             Convg  =    0.3818D-08             -V/T =  2.0023
 ExpMin= 1.61D-01 ExpMax= 4.17D+03 ExpMxC= 6.27D+02 IAcc=3 IRadAn=         5 AccDes= 0.00D+00
 HarFok:  IExCor=  205 AccDes= 0.00D+00 IRadAn=         5 IDoV=-2
 ScaDFX=  1.000000  1.000000  1.000000  1.000000
 Range of M.O.s used for correlation:    15   230
 NBasis=   230 NAE=    48 NBE=    48 NFC=    14 NFV=     0
 NROrb=    216 NOA=    34 NOB=    34 NVA=   182 NVB=   182
 Semi-Direct transformation.
 ModeAB=           4 MOrb=            34 LenV=     267240099
 LASXX=     51160684 LTotXX=    51160684 LenRXX=   103396448
 LTotAB=    52235764 MaxLAS=   156985344 LenRXY=           0
 NonZer=   154557132 LenScr=   232390656 LnRSAI=   156985344
 LnScr1=   235929600 LExtra=           0 Total=    728702048
 MaxDsk=          -1 SrtSym=           T ITran=            3
 JobTyp=0 Pass  1:  I=   1 to  34.
 (rs|ai) integrals will be sorted in core.
 Spin components of T(2) and E(2):
     alpha-alpha T2 =       0.9463946000D-01 E2=     -0.2493402736D+00
     alpha-beta  T2 =       0.4838535904D+00 E2=     -0.1337715180D+01
     beta-beta   T2 =       0.9463946000D-01 E2=     -0.2493402736D+00
 ANorm=    0.1293496235D+01
 E2 =    -0.1836395728D+01 EUMP2 =    -0.57093182144532D+03
 Orbital symmetries:
       Occupied  (A') (A') (A') (A') (A') (A') (A') (A') (A') (A')
                 (A') (A') (A') (A') (A') (A') (A') (A') (A') (A')
                 (A') (A') (A') (A') (A') (A') (A') (A') (A') (A')
                 (A') (A') (A') (A') (A') (A') (A") (A') (A') (A")
                 (A') (A') (A") (A') (A") (A") (A") (A")
       Virtual   (A") (A") (A") (A") (A") (A') (A') (A') (A') (A')
                 (A') (A') (A') (A') (A') (A") (A") (A') (A') (A')
                 (A') (A') (A') (A') (A') (A') (A') (A') (A') (A')
                 (A') (A') (A') (A") (A") (A') (A') (A') (A') (A')
                 (A") (A") (A") (A') (A') (A') (A') (A") (A') (A')
                 (A") (A") (A") (A") (A') (A') (A") (A") (A') (A')
                 (A") (A') (A') (A') (A') (A') (A') (A") (A') (A')
                 (A') (A') (A') (A') (A') (A') (A') (A') (A') (A')
                 (A') (A') (A') (A') (A') (A') (A') (A') (A") (A")
                 (A') (A") (A') (A") (A') (A') (A") (A") (A') (A")
                 (A") (A") (A") (A') (A") (A") (A') (A") (A') (A')
                 (A') (A') (A') (A') (A') (A') (A') (A") (A') (A')
                 (A') (A") (A') (A') (A') (A') (A') (A') (A') (A")
                 (A') (A') (A") (A') (A") (A") (A") (A") (A") (A")
                 (A') (A") (A') (A') (A") (A") (A') (A') (A') (A')
                 (A') (A") (A") (A') (A') (A') (A') (A') (A') (A')
                 (A') (A') (A') (A') (A') (A') (A') (A') (A') (A')
                 (A') (A') (A') (A') (A') (A') (A') (A') (A') (A')
                 (A') (A')
    12 initial guesses have been made.
 Convergence on wavefunction:    0.001000000000000
 Iteration     1 Dimension    12 NMult    12
 New state      1 was old state      5
 New state      2 was old state      1
 Iteration     2 Dimension    24 NMult    24
 No map to state      3
 Iteration     3 Dimension    27 NMult    27
 Iteration     4 Dimension    30 NMult    30
 Iteration     5 Dimension    33 NMult    33
 Iteration     6 Dimension    36 NMult    36
 ***********************************************************************
 Excited states from <AA,BB:AA,BB> singles matrix:
 ***********************************************************************
 
 Ground to excited state transition densities written to RWF  633
 Ground to excited state transition electric dipole moments (Au):
       state          X           Y           Z        Dip. S.      Osc.
         1         0.0000      0.0000      0.0000      0.0000      0.0000
         2         2.3070     -1.7357      0.0000      8.3352      0.9607
         3         0.1183      0.4219      0.0000      0.1920      0.0272
 Ground to excited state transition velocity dipole moments (Au):
       state          X           Y           Z        Dip. S.      Osc.
         1         0.0000      0.0000      0.0000      0.0000      0.0000
         2        -0.2775      0.1574      0.0000      0.1018      0.3924
         3         0.0094     -0.0003      0.0000      0.0001      0.0003
 Ground to excited state transition magnetic dipole moments (Au):
       state          X           Y           Z
         1         0.5428     -0.9025      0.0000
         2         0.0000      0.0000      0.0012
         3         0.0000      0.0000     -0.0008
 Ground to excited state transition velocity quadrupole moments (Au):
       state          XX          YY          ZZ          XY          XZ          YZ
         1         0.0000      0.0000      0.0000      0.0000     -0.0053      0.0088
         2         0.0007     -0.0007      0.0000     -0.0001      0.0000      0.0000
         3         0.0005      0.0014      0.0000     -0.0008      0.0000      0.0000
 <0|del|b> * <b|rxdel|0> + <0|del|b> * <b|delr+rdel|0>
 Rotatory Strengths (R) in cgs (10**-40 erg-esu-cm/Gauss)
       state          XX          YY          ZZ    R(velocity)
         1         0.0000      0.0000      0.0000      0.0000
         2         0.0000      0.0000      0.0000      0.0000
         3         0.0000      0.0000      0.0000      0.0000
 1/2[<0|r|b>*<b|rxdel|0> + (<0|rxdel|b>*<b|r|0>)*]
 Rotatory Strengths (R) in cgs (10**-40 erg-esu-cm/Gauss)
       state          XX          YY          ZZ     R(length)
         1         0.0000      0.0000      0.0000      0.0000
         2         0.0000      0.0000      0.0000      0.0000
         3         0.0000      0.0000      0.0000      0.0000
  1/2[<0|del|b>*<b|r|0> + (<0|r|b>*<b|del|0>)*] (Au)
       state          X           Y           Z        Dip. S.   Osc.(frdel)
         1         0.0000      0.0000      0.0000      0.0000      0.0000
         2        -0.6402     -0.2732      0.0000      0.9133      0.6089
         3         0.0011     -0.0001      0.0000     -0.0010     -0.0007

 Excitation energies and oscillator strengths:
 
 Excited State   1:      Singlet-A"     3.3935 eV  365.35 nm  f=0.0000  <S**2>=0.000
      44 -> 49         0.62470
      44 -> 53        -0.29508
 This state for optimization and/or second-order correction.
 Total Energy, E(CIS) =  -568.970715266    
 Copying the excited state density for this state as the 1-particle RhoCI density.
 
 Excited State   2:      Singlet-A'     4.7045 eV  263.55 nm  f=0.9607  <S**2>=0.000
      45 -> 52         0.14088
      48 -> 49         0.66168
 
 Excited State   3:      Singlet-A'     5.7718 eV  214.81 nm  f=0.0272  <S**2>=0.000
      45 -> 51         0.22291
      46 -> 52         0.24291
      47 -> 49         0.52104
      48 -> 50        -0.32357
 SavETr:  write IOETrn=   770 NScale= 10 NData=  16 NLR=1 LETran=      64.
 Calling MO disk program.
 ***********************************************************************
 CIS(D) Correction to the CiSingles state  1
 ***********************************************************************
 Calling MO disk program.
 This state is a singlet. 
 DD1Dir will call FoFDir   2 times, MxPair=       596
 NAB=   595 NAA=     0 NBB=     0 NumPrc=  4.
 Spin AB IR=  328 I=   1 J=  30 Mu=  120 Nu=  102 IOp=2 MuP=  -120 NuP=   102
 FactIJ= 1.0 Fact=-1.0 A= 9.6794425990D-02 AP= 9.6794425990D-02
 Integrals replicated using symmetry in FoFDir.
 MinBra= 0 MaxBra= 2 Meth= 1.
 IRaf=       0 NMat= 596 IRICut=     745 DoRegI=T DoRafI=T ISym2E= 2 JSym2E=2.
 Spin AB IR=  283 I=  30 J=  30 Mu=  120 Nu=  118 IOp=2 MuP=  -120 NuP=   118
 FactIJ= 1.0 Fact=-1.0 A= 2.1674207543D-01 AP= 2.1674207543D-01
 CIS     Exc. E:  0.124710451319     a.u.     3.39354 eV   365.35312 nm
 CIS(D) doubles : -0.140981112990    
 CIS(D) triples :  0.132743960810    
 CIS(D) Total   : -0.823715218062E-02        E(CIS(D))=  -570.815348146    
 CIS(D) Exc. E:  0.116473299138     a.u.     3.16940 eV   391.19140 nm
 ***********************************************************************
 CIS(D) Correction to the CiSingles state  2
 ***********************************************************************
 Calling MO disk program.
 This state is a singlet. 
 DD1Dir will call FoFDir   2 times, MxPair=       596
 NAB=   595 NAA=     0 NBB=     0 NumPrc=  4.
 CIS     Exc. E:  0.172885866163     a.u.     4.70446 eV   263.54585 nm
 CIS(D) doubles : -0.145980739021    
 CIS(D) triples :  0.145869286924    
 CIS(D) Total   : -0.111452097741E-03        E(CIS(D))=  -570.759047031    
 CIS(D) Exc. E:  0.172774414066     a.u.     4.70143 eV   263.71586 nm
 ***********************************************************************
 CIS(D) Correction to the CiSingles state  3
 ***********************************************************************
 Calling MO disk program.
 This state is a singlet. 
 DD1Dir will call FoFDir   2 times, MxPair=       596
 NAB=   595 NAA=     0 NBB=     0 NumPrc=  4.
 CIS     Exc. E:  0.212111240740     a.u.     5.77184 eV   214.80876 nm
 CIS(D) doubles : -0.172323829271    
 CIS(D) triples :  0.134047372067    
 CIS(D) Total   : -0.382764572043E-01        E(CIS(D))=  -570.757986662    
 CIS(D) Exc. E:  0.173834783536     a.u.     4.73029 eV   262.10722 nm

 **********************************************************************

            Population analysis using the SCF density.

 **********************************************************************

 Orbital symmetries:
       Occupied  (A') (A') (A') (A') (A') (A') (A') (A') (A') (A')
                 (A') (A') (A') (A') (A') (A') (A') (A') (A') (A')
                 (A') (A') (A') (A') (A') (A') (A') (A') (A') (A')
                 (A') (A') (A') (A') (A') (A') (A") (A') (A') (A")
                 (A') (A') (A") (A') (A") (A") (A") (A")
       Virtual   (A") (A") (A") (A") (A") (A') (A') (A') (A') (A')
                 (A') (A') (A') (A') (A') (A") (A") (A') (A') (A')
                 (A') (A') (A') (A') (A') (A') (A') (A') (A') (A')
                 (A') (A') (A') (A") (A") (A') (A') (A') (A') (A')
                 (A") (A") (A") (A') (A') (A') (A') (A") (A') (A')
                 (A") (A") (A") (A") (A') (A') (A") (A") (A') (A')
                 (A") (A') (A') (A') (A') (A') (A') (A") (A') (A')
                 (A') (A') (A') (A') (A') (A') (A') (A') (A') (A')
                 (A') (A') (A') (A') (A') (A') (A') (A') (A") (A")
                 (A') (A") (A') (A") (A') (A') (A") (A") (A') (A")
                 (A") (A") (A") (A') (A") (A") (A') (A") (A') (A')
                 (A') (A') (A') (A') (A') (A') (A') (A") (A') (A')
                 (A') (A") (A') (A') (A') (A') (A') (A') (A') (A")
                 (A') (A') (A") (A') (A") (A") (A") (A") (A") (A")
                 (A') (A") (A') (A') (A") (A") (A') (A') (A') (A')
                 (A') (A") (A") (A') (A') (A') (A') (A') (A') (A')
                 (A') (A') (A') (A') (A') (A') (A') (A') (A') (A')
                 (A') (A') (A') (A') (A') (A') (A') (A') (A') (A')
                 (A') (A')
 The electronic state is 1-A'.
 Alpha  occ. eigenvalues --  -15.62895 -15.62772 -11.26590 -11.26589 -11.24350
 Alpha  occ. eigenvalues --  -11.24350 -11.24152 -11.24152 -11.24047 -11.24047
 Alpha  occ. eigenvalues --  -11.23961 -11.23960 -11.23908 -11.23908  -1.36166
 Alpha  occ. eigenvalues --   -1.16692  -1.14456  -1.07039  -1.01818  -1.01768
 Alpha  occ. eigenvalues --   -1.00305  -0.92020  -0.83862  -0.83431  -0.81389
 Alpha  occ. eigenvalues --   -0.77052  -0.71369  -0.69392  -0.66470  -0.65596
 Alpha  occ. eigenvalues --   -0.62581  -0.61343  -0.59369  -0.59332  -0.58876
 Alpha  occ. eigenvalues --   -0.57372  -0.57100  -0.51664  -0.51500  -0.50849
 Alpha  occ. eigenvalues --   -0.49366  -0.49342  -0.47171  -0.38980  -0.35651
 Alpha  occ. eigenvalues --   -0.33764  -0.33725  -0.29717
 Alpha virt. eigenvalues --    0.05580   0.14047   0.14207   0.15706   0.22223
 Alpha virt. eigenvalues --    0.23841   0.23850   0.28295   0.29439   0.30122
 Alpha virt. eigenvalues --    0.31389   0.32388   0.32432   0.33686   0.35212
 Alpha virt. eigenvalues --    0.36792   0.38325   0.42564   0.43057   0.45646
 Alpha virt. eigenvalues --    0.45801   0.47203   0.47270   0.51382   0.52642
 Alpha virt. eigenvalues --    0.53112   0.55141   0.60457   0.67417   0.71598
 Alpha virt. eigenvalues --    0.72541   0.72994   0.74284   0.74703   0.74984
 Alpha virt. eigenvalues --    0.75180   0.78299   0.79712   0.81185   0.81308
 Alpha virt. eigenvalues --    0.81778   0.82194   0.82629   0.83139   0.83411
 Alpha virt. eigenvalues --    0.83504   0.83518   0.83576   0.85935   0.86828
 Alpha virt. eigenvalues --    0.89227   0.90256   0.91201   0.92163   0.92179
 Alpha virt. eigenvalues --    0.93699   0.99940   1.00925   1.01523   1.05986
 Alpha virt. eigenvalues --    1.08108   1.08732   1.09167   1.10323   1.10845
 Alpha virt. eigenvalues --    1.10962   1.10995   1.12122   1.12985   1.13805
 Alpha virt. eigenvalues --    1.16669   1.17494   1.19330   1.20259   1.20711
 Alpha virt. eigenvalues --    1.21215   1.23891   1.25120   1.28231   1.28282
 Alpha virt. eigenvalues --    1.33393   1.34516   1.37614   1.39224   1.42023
 Alpha virt. eigenvalues --    1.42188   1.45217   1.46343   1.49699   1.51097
 Alpha virt. eigenvalues --    1.55080   1.56842   1.58924   1.60318   1.65711
 Alpha virt. eigenvalues --    1.65879   1.69985   1.70294   1.71605   1.74285
 Alpha virt. eigenvalues --    1.75218   1.76665   1.76757   1.78381   1.78565
 Alpha virt. eigenvalues --    1.78582   1.81150   1.86430   1.94456   2.03609
 Alpha virt. eigenvalues --    2.05656   2.08270   2.11242   2.12259   2.12443
 Alpha virt. eigenvalues --    2.16132   2.16638   2.19280   2.22722   2.26557
 Alpha virt. eigenvalues --    2.27659   2.29692   2.30357   2.30379   2.31755
 Alpha virt. eigenvalues --    2.38598   2.39515   2.43477   2.44344   2.45221
 Alpha virt. eigenvalues --    2.45564   2.45948   2.46060   2.49677   2.51283
 Alpha virt. eigenvalues --    2.56145   2.57624   2.62360   2.63225   2.63293
 Alpha virt. eigenvalues --    2.63930   2.67865   2.71771   2.82325   2.83325
 Alpha virt. eigenvalues --    2.86360   2.88390   2.91363   2.91501   2.94389
 Alpha virt. eigenvalues --    2.96759   2.98977   3.03308   3.03518   3.07717
 Alpha virt. eigenvalues --    3.08379   3.08923   3.10223   3.10474   3.12708
 Alpha virt. eigenvalues --    3.18494   3.29735   3.30116   3.35411   3.50500
 Alpha virt. eigenvalues --    3.63397   3.78732   3.81117   4.28410   4.46290
 Alpha virt. eigenvalues --    4.50832   4.51050   4.53735   4.53951   4.56693
 Alpha virt. eigenvalues --    4.57898   4.74969   4.75044   4.79264   4.81795
 Alpha virt. eigenvalues --    5.12270   5.13760
          Condensed to atoms (all electrons):
              1          2          3          4          5          6
     1  C    4.907865   0.534372  -0.038270  -0.029301   0.551745   0.381900
     2  C    0.534372   4.930237   0.568862   0.372630  -0.046678  -0.028223
     3  C   -0.038270   0.568862   4.612488  -0.030552  -0.028419   0.001773
     4  H   -0.029301   0.372630  -0.030552   0.457991   0.002526  -0.001558
     5  C    0.551745  -0.046678  -0.028419   0.002526   4.893804  -0.029274
     6  H    0.381900  -0.028223   0.001773  -0.001558  -0.029274   0.467150
     7  C   -0.033757  -0.046057   0.510981   0.004607  -0.043545   0.000168
     8  C   -0.042117  -0.033746  -0.028514  -0.000222   0.537001   0.002393
     9  H   -0.029414   0.002290   0.000250  -0.000088   0.382000  -0.001351
    10  H   -0.000041   0.003018  -0.027878  -0.000071   0.002269   0.000008
    11  H    0.002273   0.000315   0.001170   0.000010  -0.029323  -0.000105
    12  N    0.002915  -0.065063   0.313325   0.002806  -0.000167  -0.000076
    13  N   -0.000084   0.003841  -0.093757  -0.000086   0.000045   0.000001
    14  C    0.000002  -0.000255   0.005797  -0.000018   0.000000   0.000000
    15  C    0.000000   0.000008   0.000479  -0.000018   0.000000   0.000000
    16  C    0.000000   0.000000  -0.000001   0.000000   0.000000   0.000000
    17  H    0.000000  -0.000020  -0.000161   0.000146   0.000000   0.000000
    18  C    0.000000   0.000006  -0.000255   0.000000   0.000000   0.000000
    19  C    0.000000   0.000000   0.000002   0.000000   0.000000   0.000000
    20  H    0.000000   0.000000  -0.000018   0.000000   0.000000   0.000000
    21  C    0.000000   0.000000   0.000000   0.000000   0.000000   0.000000
    22  H    0.000000   0.000000   0.000000   0.000000   0.000000   0.000000
    23  H    0.000000   0.000000   0.000000   0.000000   0.000000   0.000000
    24  H    0.000000   0.000000   0.000000   0.000000   0.000000   0.000000
              7          8          9         10         11         12
     1  C   -0.033757  -0.042117  -0.029414  -0.000041   0.002273   0.002915
     2  C   -0.046057  -0.033746   0.002290   0.003018   0.000315  -0.065063
     3  C    0.510981  -0.028514   0.000250  -0.027878   0.001170   0.313325
     4  H    0.004607  -0.000222  -0.000088  -0.000071   0.000010   0.002806
     5  C   -0.043545   0.537001   0.382000   0.002269  -0.029323  -0.000167
     6  H    0.000168   0.002393  -0.001351   0.000008  -0.000105  -0.000076
     7  C    4.988267   0.523595   0.002277   0.377144  -0.027100  -0.061308
     8  C    0.523595   4.927539  -0.029770  -0.031934   0.381666   0.004049
     9  H    0.002277  -0.029770   0.468349  -0.000082  -0.001278   0.000002
    10  H    0.377144  -0.031934  -0.000082   0.432109  -0.001077  -0.008859
    11  H   -0.027100   0.381666  -0.001278  -0.001077   0.466305  -0.000063
    12  N   -0.061308   0.004049   0.000002  -0.008859  -0.000063   6.890982
    13  N   -0.010779  -0.000533   0.000000   0.015068  -0.000005   0.333089
    14  C    0.000479  -0.000001   0.000000  -0.000161   0.000000  -0.093727
    15  C    0.000037   0.000000   0.000000   0.000031   0.000000  -0.010762
    16  C    0.000000   0.000000   0.000000   0.000000   0.000000  -0.000532
    17  H    0.000031   0.000000   0.000000   0.000002   0.000000   0.015061
    18  C    0.000008   0.000000   0.000000  -0.000020   0.000000   0.003840
    19  C    0.000000   0.000000   0.000000   0.000000   0.000000  -0.000084
    20  H   -0.000018   0.000000   0.000000   0.000146   0.000000  -0.000086
    21  C    0.000000   0.000000   0.000000   0.000000   0.000000   0.000045
    22  H    0.000000   0.000000   0.000000   0.000000   0.000000  -0.000005
    23  H    0.000000   0.000000   0.000000   0.000000   0.000000   0.000000
    24  H    0.000000   0.000000   0.000000   0.000000   0.000000   0.000001
             13         14         15         16         17         18
     1  C   -0.000084   0.000002   0.000000   0.000000   0.000000   0.000000
     2  C    0.003841  -0.000255   0.000008   0.000000  -0.000020   0.000006
     3  C   -0.093757   0.005797   0.000479  -0.000001  -0.000161  -0.000255
     4  H   -0.000086  -0.000018  -0.000018   0.000000   0.000146   0.000000
     5  C    0.000045   0.000000   0.000000   0.000000   0.000000   0.000000
     6  H    0.000001   0.000000   0.000000   0.000000   0.000000   0.000000
     7  C   -0.010779   0.000479   0.000037   0.000000   0.000031   0.000008
     8  C   -0.000533  -0.000001   0.000000   0.000000   0.000000   0.000000
     9  H    0.000000   0.000000   0.000000   0.000000   0.000000   0.000000
    10  H    0.015068  -0.000161   0.000031   0.000000   0.000002  -0.000020
    11  H   -0.000005   0.000000   0.000000   0.000000   0.000000   0.000000
    12  N    0.333089  -0.093727  -0.010762  -0.000532   0.015061   0.003840
    13  N    6.891076   0.313314  -0.061303   0.004049  -0.008858  -0.065061
    14  C    0.313314   4.612455   0.510972  -0.028514  -0.027879   0.568866
    15  C   -0.061303   0.510972   4.988263   0.523597   0.377147  -0.046064
    16  C    0.004049  -0.028514   0.523597   4.927536  -0.031933  -0.033746
    17  H   -0.008858  -0.027879   0.377147  -0.031933   0.432116   0.003018
    18  C   -0.065061   0.568866  -0.046064  -0.033746   0.003018   4.930232
    19  C    0.002915  -0.038271  -0.033754  -0.042119  -0.000041   0.534373
    20  H    0.002807  -0.030552   0.004607  -0.000222  -0.000071   0.372629
    21  C   -0.000167  -0.028418  -0.043544   0.537002   0.002269  -0.046678
    22  H   -0.000063   0.001170  -0.027100   0.381666  -0.001077   0.000315
    23  H    0.000002   0.000250   0.002277  -0.029769  -0.000082   0.002289
    24  H   -0.000076   0.001773   0.000168   0.002393   0.000008  -0.028222
             19         20         21         22         23         24
     1  C    0.000000   0.000000   0.000000   0.000000   0.000000   0.000000
     2  C    0.000000   0.000000   0.000000   0.000000   0.000000   0.000000
     3  C    0.000002  -0.000018   0.000000   0.000000   0.000000   0.000000
     4  H    0.000000   0.000000   0.000000   0.000000   0.000000   0.000000
     5  C    0.000000   0.000000   0.000000   0.000000   0.000000   0.000000
     6  H    0.000000   0.000000   0.000000   0.000000   0.000000   0.000000
     7  C    0.000000  -0.000018   0.000000   0.000000   0.000000   0.000000
     8  C    0.000000   0.000000   0.000000   0.000000   0.000000   0.000000
     9  H    0.000000   0.000000   0.000000   0.000000   0.000000   0.000000
    10  H    0.000000   0.000146   0.000000   0.000000   0.000000   0.000000
    11  H    0.000000   0.000000   0.000000   0.000000   0.000000   0.000000
    12  N   -0.000084  -0.000086   0.000045  -0.000005   0.000000   0.000001
    13  N    0.002915   0.002807  -0.000167  -0.000063   0.000002  -0.000076
    14  C   -0.038271  -0.030552  -0.028418   0.001170   0.000250   0.001773
    15  C   -0.033754   0.004607  -0.043544  -0.027100   0.002277   0.000168
    16  C   -0.042119  -0.000222   0.537002   0.381666  -0.029769   0.002393
    17  H   -0.000041  -0.000071   0.002269  -0.001077  -0.000082   0.000008
    18  C    0.534373   0.372629  -0.046678   0.000315   0.002289  -0.028222
    19  C    4.907864  -0.029301   0.551745   0.002274  -0.029413   0.381900
    20  H   -0.029301   0.457992   0.002526   0.000010  -0.000088  -0.001558
    21  C    0.551745   0.002526   4.893800  -0.029323   0.382000  -0.029274
    22  H    0.002274   0.000010  -0.029323   0.466303  -0.001278  -0.000105
    23  H   -0.029413  -0.000088   0.382000  -0.001278   0.468345  -0.001351
    24  H    0.381900  -0.001558  -0.029274  -0.000105  -0.001351   0.467147
 Mulliken atomic charges:
              1
     1  C   -0.208088
     2  C   -0.195536
     3  C    0.232697
     4  H    0.221198
     5  C   -0.191985
     6  H    0.207193
     7  C   -0.185031
     8  C   -0.209405
     9  H    0.206815
    10  H    0.240329
    11  H    0.207212
    12  N   -0.325384
    13  N   -0.325433
    14  C    0.232717
    15  C   -0.185041
    16  C   -0.209406
    17  H    0.240325
    18  C   -0.195530
    19  C   -0.208088
    20  H    0.221198
    21  C   -0.191983
    22  H    0.207214
    23  H    0.206818
    24  H    0.207195
 Sum of Mulliken atomic charges =   0.00000
 Mulliken charges with hydrogens summed into heavy atoms:
              1
     1  C   -0.000896
     2  C    0.025663
     3  C    0.232697
     5  C    0.014829
     7  C    0.055298
     8  C   -0.002193
    12  N   -0.325384
    13  N   -0.325433
    14  C    0.232717
    15  C    0.055284
    16  C   -0.002192
    18  C    0.025668
    19  C   -0.000893
    21  C    0.014835
 Sum of Mulliken charges with hydrogens summed into heavy atoms =   0.00000
 Electronic spatial extent (au):  <R**2>=           3928.2909
 Charge=              0.0000 electrons
 Dipole moment (field-independent basis, Debye):
    X=              0.0001    Y=             -0.0004    Z=              0.0000  Tot=              0.0004
 Quadrupole moment (field-independent basis, Debye-Ang):
   XX=            -66.5128   YY=            -68.8018   ZZ=            -87.7171
   XY=             -4.4602   XZ=              0.0000   YZ=              0.0000
 Traceless Quadrupole moment (field-independent basis, Debye-Ang):
   XX=              7.8311   YY=              5.5421   ZZ=            -13.3732
   XY=             -4.4602   XZ=              0.0000   YZ=              0.0000
 Octapole moment (field-independent basis, Debye-Ang**2):
  XXX=              0.0037  YYY=             -0.0027  ZZZ=              0.0000  XYY=              0.0010
  XXY=             -0.0025  XXZ=              0.0000  XZZ=              0.0003  YZZ=              0.0004
  YYZ=              0.0000  XYZ=              0.0000
 Hexadecapole moment (field-independent basis, Debye-Ang**3):
 XXXX=          -2817.6020 YYYY=          -1903.9025 ZZZZ=            -92.1687 XXXY=            867.0306
 XXXZ=              0.0000 YYYX=            875.1729 YYYZ=              0.0000 ZZZX=              0.0000
 ZZZY=              0.0000 XXYY=           -781.0837 XXZZ=           -622.8326 YYZZ=           -421.5961
 XXYZ=              0.0000 YYXZ=              0.0000 ZZXY=            380.3639
 N-N= 7.492145982884D+02 E-N=-2.824890016296D+03  KE= 5.677940810777D+02
 Symmetry A'   KE= 5.528627520986D+02
 Symmetry A"   KE= 1.493132897913D+01
 1\1\GINC-N2D1-9\SP\RCIS-FC\6-31G(d)\C12H10N2\ROOT\17-Oct-2019\0\\#n CI
 S(D)/6-31G(d) SP Geom=AllCheckpoint\\Azo\\0,1\C,0,-0.0027359536,0.,0.0
 047567006\C,0,0.0001898606,0.,1.3986122223\C,0,1.212203891,0.,2.101869
 2902\H,0,-0.9241323968,0.,1.9683956013\C,0,1.2067184412,0.,-0.69218608
 84\H,0,-0.9451202979,0.,-0.5359481691\C,0,2.4295582768,0.,1.3987469203
 \C,0,2.4196393823,0.,0.0089665531\H,0,1.2086651205,0.,-1.7788971142\H,
 0,3.3574506103,0.,1.9595888553\H,0,3.3596686849,0.,-0.5367401636\N,0,1
 .0938709612,0.,3.5154660083\N,0,2.1902400894,0.,4.1379256047\C,0,2.072
 1191051,0.,5.5515619462\C,0,0.8548890984,0.,6.2549064371\C,0,0.8650539
 812,0.,7.6446851205\H,0,-0.0730994056,0.,5.6942325618\C,0,3.2842506303
 ,0.,6.2546201225\C,0,3.2874227275,0.,7.6484790246\H,0,4.2084773979,0.,
 5.684683688\C,0,2.0780945096,0.,8.3456316214\H,0,-0.0748788822,0.,8.19
 05575817\H,0,2.0763344896,0.,9.4323432116\H,0,4.2299030312,0.,8.189017
 2179\\Version=EM64L-G09RevC.01\State=1-A'\HF=-569.0954257\MP2=-570.931
 8214\RMSD=3.818e-09\PG=CS [SG(C12H10N2)]\\@


 I KNOW YOU BELIEVE YOU UNDERSTAND WHAT YOU THINK I SAID,
 BUT I AM NOT SURE YOU REALIZE THAT WHAT YOU HEARD IS NOT WHAT I MEANT.
 Job cpu time:  0 days  1 hours 12 minutes 49.2 seconds.
 File lengths (MBytes):  RWF=   5626 Int=      0 D2E=      0 Chk=     10 Scr=      1
 Normal termination of Gaussian 09 at Thu Oct 17 02:55:12 2019.
