 Entering Gaussian System, Link 0=g09
 Initial command:
 /usr/local/apps/g09.c01/g09/l1.exe /gpfs_share/che596/gaussian_examples/Azo/Gau-28348.inp -scrdir=/gpfs_share/che596/gaussian_examples/Azo/
 Entering Link 1 = /usr/local/apps/g09.c01/g09/l1.exe PID=     28349.
  
 Copyright (c) 1988,1990,1992,1993,1995,1998,2003,2009,2011,
            Gaussian, Inc.  All Rights Reserved.
  
 This is part of the Gaussian(R) 09 program.  It is based on
 the Gaussian(R) 03 system (copyright 2003, Gaussian, Inc.),
 the Gaussian(R) 98 system (copyright 1998, Gaussian, Inc.),
 the Gaussian(R) 94 system (copyright 1995, Gaussian, Inc.),
 the Gaussian 92(TM) system (copyright 1992, Gaussian, Inc.),
 the Gaussian 90(TM) system (copyright 1990, Gaussian, Inc.),
 the Gaussian 88(TM) system (copyright 1988, Gaussian, Inc.),
 the Gaussian 86(TM) system (copyright 1986, Carnegie Mellon
 University), and the Gaussian 82(TM) system (copyright 1983,
 Carnegie Mellon University). Gaussian is a federally registered
 trademark of Gaussian, Inc.
  
 This software contains proprietary and confidential information,
 including trade secrets, belonging to Gaussian, Inc.
  
 This software is provided under written license and may be
 used, copied, transmitted, or stored only in accord with that
 written license.
  
 The following legend is applicable only to US Government
 contracts under FAR:
  
                    RESTRICTED RIGHTS LEGEND
  
 Use, reproduction and disclosure by the US Government is
 subject to restrictions as set forth in subparagraphs (a)
 and (c) of the Commercial Computer Software - Restricted
 Rights clause in FAR 52.227-19.
  
 Gaussian, Inc.
 340 Quinnipiac St., Bldg. 40, Wallingford CT 06492
  
  
 ---------------------------------------------------------------
 Warning -- This program may not be used in any manner that
 competes with the business of Gaussian, Inc. or will provide
 assistance to any competitor of Gaussian, Inc.  The licensee
 of this program is prohibited from giving any competitor of
 Gaussian, Inc. access to this program.  By using this program,
 the user acknowledges that Gaussian, Inc. is engaged in the
 business of creating and licensing software in the field of
 computational chemistry and represents and warrants to the
 licensee that it is not a competitor of Gaussian, Inc. and that
 it will not use this program in any manner prohibited above.
 ---------------------------------------------------------------
  

 Cite this work as:
 Gaussian 09, Revision C.01,
 M. J. Frisch, G. W. Trucks, H. B. Schlegel, G. E. Scuseria, 
 M. A. Robb, J. R. Cheeseman, G. Scalmani, V. Barone, B. Mennucci, 
 G. A. Petersson, H. Nakatsuji, M. Caricato, X. Li, H. P. Hratchian, 
 A. F. Izmaylov, J. Bloino, G. Zheng, J. L. Sonnenberg, M. Hada, 
 M. Ehara, K. Toyota, R. Fukuda, J. Hasegawa, M. Ishida, T. Nakajima, 
 Y. Honda, O. Kitao, H. Nakai, T. Vreven, J. A. Montgomery, Jr., 
 J. E. Peralta, F. Ogliaro, M. Bearpark, J. J. Heyd, E. Brothers, 
 K. N. Kudin, V. N. Staroverov, T. Keith, R. Kobayashi, J. Normand, 
 K. Raghavachari, A. Rendell, J. C. Burant, S. S. Iyengar, J. Tomasi, 
 M. Cossi, N. Rega, J. M. Millam, M. Klene, J. E. Knox, J. B. Cross, 
 V. Bakken, C. Adamo, J. Jaramillo, R. Gomperts, R. E. Stratmann, 
 O. Yazyev, A. J. Austin, R. Cammi, C. Pomelli, J. W. Ochterski, 
 R. L. Martin, K. Morokuma, V. G. Zakrzewski, G. A. Voth, 
 P. Salvador, J. J. Dannenberg, S. Dapprich, A. D. Daniels, 
 O. Farkas, J. B. Foresman, J. V. Ortiz, J. Cioslowski, 
 and D. J. Fox, Gaussian, Inc., Wallingford CT, 2010.
 
 ******************************************
 Gaussian 09:  EM64L-G09RevC.01 23-Sep-2011
                17-Oct-2019 
 ******************************************
 %NProcShared=4
 Will use up to    4 processors via shared memory.
 %Mem=2GB
 %Chk=azo.chk
 ---------------------
 #n B3LYP/6-31G(d) Opt
 ---------------------
 1/14=-1,18=20,19=15,26=3,38=1/1,3;
 2/9=110,12=2,17=6,18=5,40=1/2;
 3/5=1,6=6,7=1,11=2,16=1,25=1,30=1,71=1,74=-5/1,2,3;
 4//1;
 5/5=2,38=5/2;
 6/7=2,8=2,9=2,10=2,28=1/1;
 7//1,2,3,16;
 1/14=-1,18=20,19=15/3(2);
 2/9=110/2;
 99//99;
 2/9=110/2;
 3/5=1,6=6,7=1,11=2,16=1,25=1,30=1,71=1,74=-5/1,2,3;
 4/5=5,16=3/1;
 5/5=2,38=5/2;
 7//1,2,3,16;
 1/14=-1,18=20,19=15/3(-5);
 2/9=110/2;
 6/7=2,8=2,9=2,10=2,19=2,28=1/1;
 99/9=1/99;
 ---
 Azo
 ---
 Charge =  0 Multiplicity = 1
 Symbolic Z-Matrix:
 C
 C                    1    B1
 C                    2    B2       1    A2
 H                    2    B3       1    A3       3    D3       0
 C                    1    B4       2    A4       3    D4       0
 H                    1    B5       2    A5       3    D5       0
 C                    3    B6       2    A6       1    D6       0
 C                    5    B7       1    A7       2    D7       0
 H                    5    B8       1    A8       2    D8       0
 H                    7    B9       3    A9       2    D9       0
 H                    8    B10      5    A10      1    D10      0
 N                    3    B11      2    A11      1    D11      0
 N                    12   B12      3    A12      2    D12      0
 C                    13   B13      12   A13      3    D13      0
 C                    14   B14      13   A14      12   D14      0
 C                    15   B15      14   A15      13   D15      0
 H                    15   B16      14   A16      13   D16      0
 C                    14   B17      13   A17      12   D17      0
 C                    18   B18      14   A18      13   D18      0
 H                    18   B19      14   A19      13   D19      0
 C                    19   B20      18   A20      14   D20      0
 H                    16   B21      15   A21      14   D21      0
 H                    21   B22      19   A22      18   D22      0
 H                    19   B23      18   A23      14   D23      0
       Variables:
  B1                    1.39772                  
  B2                    1.40166                  
  A2                  121.2783                   
  B3                    1.08747                  
  A3                  119.37349                  
  D3                  180.                       
  B4                    1.39227                  
  A4                  119.9063                   
  D4                  360.                       
  B5                    1.08682                  
  A5                  119.9526                   
  D5                  180.                       
  B6                    1.40418                  
  A6                  117.94142                  
  D6                    0.                       
  B7                    1.39276                  
  A7                  119.81283                  
  D7                    0.                       
  B8                    1.08701                  
  A8                  120.10093                  
  D8                  180.                       
  B9                    1.08675                  
  A9                  120.33592                  
  D9                  180.                       
  B10                   1.08696                  
  A10                 120.07768                  
  D10                 180.                       
  B11                   1.41282                  
  A11                 117.11963                  
  D11                 180.                       
  B12                   1.24668                  
  A12                 113.77709                  
  D12                 180.                       
  B13                   1.41317                  
  A13                 113.6555                   
  D13                 180.                       
  B14                   1.40436                  
  A14                 124.89047                  
  D14                   0.                       
  B15                   1.39865                  
  A15                 121.02202                  
  D15                 180.                       
  B16                   1.08677                  
  A16                 120.33217                  
  D16                 360.                       
  B17                   1.40161                  
  A17                 117.18239                  
  D17                 180.                       
  B18                   1.39786                  
  A18                 121.26783                  
  D18                 180.                       
  B19                   1.08746                  
  A19                 119.36108                  
  D19                   0.                       
  B20                   1.39234                  
  A20                 119.91973                  
  D20                   0.                       
  B21                   1.08695                  
  A21                 119.85324                  
  D21                 180.                       
  B22                   1.08701                  
  A22                 120.11121                  
  D22                 180.                       
  B23                   1.08683                  
  A23                 119.95622                  
  D23                 180.                       
 

 GradGradGradGradGradGradGradGradGradGradGradGradGradGradGradGradGradGrad
 Berny optimization.
 Initialization pass.
                           ----------------------------
                           !    Initial Parameters    !
                           ! (Angstroms and Degrees)  !
 --------------------------                            --------------------------
 ! Name  Definition              Value          Derivative Info.                !
 --------------------------------------------------------------------------------
 ! R1    R(1,2)                  1.3977         estimate D2E/DX2                !
 ! R2    R(1,5)                  1.3923         estimate D2E/DX2                !
 ! R3    R(1,6)                  1.0868         estimate D2E/DX2                !
 ! R4    R(2,3)                  1.4017         estimate D2E/DX2                !
 ! R5    R(2,4)                  1.0875         estimate D2E/DX2                !
 ! R6    R(3,7)                  1.4042         estimate D2E/DX2                !
 ! R7    R(3,12)                 1.4128         estimate D2E/DX2                !
 ! R8    R(5,8)                  1.3928         estimate D2E/DX2                !
 ! R9    R(5,9)                  1.087          estimate D2E/DX2                !
 ! R10   R(7,8)                  1.3988         estimate D2E/DX2                !
 ! R11   R(7,10)                 1.0868         estimate D2E/DX2                !
 ! R12   R(8,11)                 1.087          estimate D2E/DX2                !
 ! R13   R(12,13)                1.2467         estimate D2E/DX2                !
 ! R14   R(13,14)                1.4132         estimate D2E/DX2                !
 ! R15   R(14,15)                1.4044         estimate D2E/DX2                !
 ! R16   R(14,18)                1.4016         estimate D2E/DX2                !
 ! R17   R(15,16)                1.3987         estimate D2E/DX2                !
 ! R18   R(15,17)                1.0868         estimate D2E/DX2                !
 ! R19   R(16,21)                1.3926         estimate D2E/DX2                !
 ! R20   R(16,22)                1.087          estimate D2E/DX2                !
 ! R21   R(18,19)                1.3979         estimate D2E/DX2                !
 ! R22   R(18,20)                1.0875         estimate D2E/DX2                !
 ! R23   R(19,21)                1.3923         estimate D2E/DX2                !
 ! R24   R(19,24)                1.0868         estimate D2E/DX2                !
 ! R25   R(21,23)                1.087          estimate D2E/DX2                !
 ! A1    A(2,1,5)              119.9063         estimate D2E/DX2                !
 ! A2    A(2,1,6)              119.9526         estimate D2E/DX2                !
 ! A3    A(5,1,6)              120.1411         estimate D2E/DX2                !
 ! A4    A(1,2,3)              121.2783         estimate D2E/DX2                !
 ! A5    A(1,2,4)              119.3735         estimate D2E/DX2                !
 ! A6    A(3,2,4)              119.3482         estimate D2E/DX2                !
 ! A7    A(2,3,7)              117.9414         estimate D2E/DX2                !
 ! A8    A(2,3,12)             117.1196         estimate D2E/DX2                !
 ! A9    A(7,3,12)             124.939          estimate D2E/DX2                !
 ! A10   A(1,5,8)              119.8128         estimate D2E/DX2                !
 ! A11   A(1,5,9)              120.1009         estimate D2E/DX2                !
 ! A12   A(8,5,9)              120.0862         estimate D2E/DX2                !
 ! A13   A(3,7,8)              120.9973         estimate D2E/DX2                !
 ! A14   A(3,7,10)             120.3359         estimate D2E/DX2                !
 ! A15   A(8,7,10)             118.6668         estimate D2E/DX2                !
 ! A16   A(5,8,7)              120.0639         estimate D2E/DX2                !
 ! A17   A(5,8,11)             120.0777         estimate D2E/DX2                !
 ! A18   A(7,8,11)             119.8584         estimate D2E/DX2                !
 ! A19   A(3,12,13)            113.7771         estimate D2E/DX2                !
 ! A20   A(12,13,14)           113.6555         estimate D2E/DX2                !
 ! A21   A(13,14,15)           124.8905         estimate D2E/DX2                !
 ! A22   A(13,14,18)           117.1824         estimate D2E/DX2                !
 ! A23   A(15,14,18)           117.9271         estimate D2E/DX2                !
 ! A24   A(14,15,16)           121.022          estimate D2E/DX2                !
 ! A25   A(14,15,17)           120.3322         estimate D2E/DX2                !
 ! A26   A(16,15,17)           118.6458         estimate D2E/DX2                !
 ! A27   A(15,16,21)           120.0528         estimate D2E/DX2                !
 ! A28   A(15,16,22)           119.8532         estimate D2E/DX2                !
 ! A29   A(21,16,22)           120.094          estimate D2E/DX2                !
 ! A30   A(14,18,19)           121.2678         estimate D2E/DX2                !
 ! A31   A(14,18,20)           119.3611         estimate D2E/DX2                !
 ! A32   A(19,18,20)           119.3711         estimate D2E/DX2                !
 ! A33   A(18,19,21)           119.9197         estimate D2E/DX2                !
 ! A34   A(18,19,24)           119.9562         estimate D2E/DX2                !
 ! A35   A(21,19,24)           120.124          estimate D2E/DX2                !
 ! A36   A(16,21,19)           119.8105         estimate D2E/DX2                !
 ! A37   A(16,21,23)           120.0783         estimate D2E/DX2                !
 ! A38   A(19,21,23)           120.1112         estimate D2E/DX2                !
 ! D1    D(5,1,2,3)              0.0            estimate D2E/DX2                !
 ! D2    D(5,1,2,4)            180.0            estimate D2E/DX2                !
 ! D3    D(6,1,2,3)            180.0            estimate D2E/DX2                !
 ! D4    D(6,1,2,4)              0.0            estimate D2E/DX2                !
 ! D5    D(2,1,5,8)              0.0            estimate D2E/DX2                !
 ! D6    D(2,1,5,9)            180.0            estimate D2E/DX2                !
 ! D7    D(6,1,5,8)            180.0            estimate D2E/DX2                !
 ! D8    D(6,1,5,9)              0.0            estimate D2E/DX2                !
 ! D9    D(1,2,3,7)              0.0            estimate D2E/DX2                !
 ! D10   D(1,2,3,12)           180.0            estimate D2E/DX2                !
 ! D11   D(4,2,3,7)            180.0            estimate D2E/DX2                !
 ! D12   D(4,2,3,12)             0.0            estimate D2E/DX2                !
 ! D13   D(2,3,7,8)              0.0            estimate D2E/DX2                !
 ! D14   D(2,3,7,10)           180.0            estimate D2E/DX2                !
 ! D15   D(12,3,7,8)           180.0            estimate D2E/DX2                !
 ! D16   D(12,3,7,10)            0.0            estimate D2E/DX2                !
 ! D17   D(2,3,12,13)          180.0            estimate D2E/DX2                !
 ! D18   D(7,3,12,13)            0.0            estimate D2E/DX2                !
 ! D19   D(1,5,8,7)              0.0            estimate D2E/DX2                !
 ! D20   D(1,5,8,11)           180.0            estimate D2E/DX2                !
 ! D21   D(9,5,8,7)            180.0            estimate D2E/DX2                !
 ! D22   D(9,5,8,11)             0.0            estimate D2E/DX2                !
 ! D23   D(3,7,8,5)              0.0            estimate D2E/DX2                !
 ! D24   D(3,7,8,11)           180.0            estimate D2E/DX2                !
 ! D25   D(10,7,8,5)           180.0            estimate D2E/DX2                !
 ! D26   D(10,7,8,11)            0.0            estimate D2E/DX2                !
 ! D27   D(3,12,13,14)         180.0            estimate D2E/DX2                !
 ! D28   D(12,13,14,15)          0.0            estimate D2E/DX2                !
 ! D29   D(12,13,14,18)        180.0            estimate D2E/DX2                !
 ! D30   D(13,14,15,16)        180.0            estimate D2E/DX2                !
 ! D31   D(13,14,15,17)          0.0            estimate D2E/DX2                !
 ! D32   D(18,14,15,16)          0.0            estimate D2E/DX2                !
 ! D33   D(18,14,15,17)        180.0            estimate D2E/DX2                !
 ! D34   D(13,14,18,19)        180.0            estimate D2E/DX2                !
 ! D35   D(13,14,18,20)          0.0            estimate D2E/DX2                !
 ! D36   D(15,14,18,19)          0.0            estimate D2E/DX2                !
 ! D37   D(15,14,18,20)        180.0            estimate D2E/DX2                !
 ! D38   D(14,15,16,21)          0.0            estimate D2E/DX2                !
 ! D39   D(14,15,16,22)        180.0            estimate D2E/DX2                !
 ! D40   D(17,15,16,21)        180.0            estimate D2E/DX2                !
 ! D41   D(17,15,16,22)          0.0            estimate D2E/DX2                !
 ! D42   D(15,16,21,19)          0.0            estimate D2E/DX2                !
 ! D43   D(15,16,21,23)        180.0            estimate D2E/DX2                !
 ! D44   D(22,16,21,19)        180.0            estimate D2E/DX2                !
 ! D45   D(22,16,21,23)          0.0            estimate D2E/DX2                !
 ! D46   D(14,18,19,21)          0.0            estimate D2E/DX2                !
 ! D47   D(14,18,19,24)        180.0            estimate D2E/DX2                !
 ! D48   D(20,18,19,21)        180.0            estimate D2E/DX2                !
 ! D49   D(20,18,19,24)          0.0            estimate D2E/DX2                !
 ! D50   D(18,19,21,16)          0.0            estimate D2E/DX2                !
 ! D51   D(18,19,21,23)        180.0            estimate D2E/DX2                !
 ! D52   D(24,19,21,16)        180.0            estimate D2E/DX2                !
 ! D53   D(24,19,21,23)          0.0            estimate D2E/DX2                !
 --------------------------------------------------------------------------------
 Trust Radius=3.00D-01 FncErr=1.00D-07 GrdErr=1.00D-06
 Number of steps in this run=    126 maximum allowed number of steps=    144.
 GradGradGradGradGradGradGradGradGradGradGradGradGradGradGradGradGradGrad

                          Input orientation:                          
 ---------------------------------------------------------------------
 Center     Atomic      Atomic             Coordinates (Angstroms)
 Number     Number       Type             X           Y           Z
 ---------------------------------------------------------------------
      1          6           0        0.000000    0.000000    0.000000
      2          6           0        0.000000    0.000000    1.397720
      3          6           0        1.197936    0.000000    2.125456
      4          1           0       -0.947666    0.000000    1.931125
      5          6           0        1.206878    0.000000   -0.694162
      6          1           0       -0.941663    0.000000   -0.542631
      7          6           0        2.404318    0.000000    1.406870
      8          6           0        2.409615    0.000000    0.008122
      9          1           0        1.210571    0.000000   -1.781166
     10          1           0        3.355878    0.000000    1.931808
     11          1           0        3.354333    0.000000   -0.529457
     12          7           0        1.095481    0.000000    3.534556
     13          7           0        2.196889    0.000000    4.118602
     14          6           0        2.091417    0.000000    5.527830
     15          6           0        0.882753    0.000000    6.242923
     16          6           0        0.872700    0.000000    7.641537
     17          1           0       -0.067227    0.000000    5.715091
     18          6           0        3.286963    0.000000    6.259390
     19          6           0        3.282210    0.000000    7.657242
     20          1           0        4.236451    0.000000    5.729256
     21          6           0        2.073080    0.000000    8.347615
     22          1           0       -0.073880    0.000000    8.175810
     23          1           0        2.065751    0.000000    9.434600
     24          1           0        4.221997    0.000000    8.203137
 ---------------------------------------------------------------------
                    Distance matrix (angstroms):
                    1          2          3          4          5
     1  C    0.000000
     2  C    1.397720   0.000000
     3  C    2.439798   1.401660   0.000000
     4  H    2.151119   1.087470   2.154385   0.000000
     5  C    1.392270   2.415062   2.819632   3.396202   0.000000
     6  H    1.086820   2.156778   3.420025   2.473763   2.153878
     7  C    2.785683   2.404336   1.404180   3.392733   2.418305
     8  C    2.409629   2.781587   2.439522   3.869015   1.392760
     9  H    2.153609   3.401587   3.906642   4.294076   1.087010
    10  H    3.872183   3.398112   2.166612   4.303544   3.393217
    11  H    3.395861   3.868534   3.420322   4.955971   2.153762
    12  N    3.700427   2.401280   1.412820   2.597198   4.230185
    13  N    4.667891   3.497073   2.229471   3.830572   4.913534
    14  C    5.910240   4.629453   3.517735   4.708749   6.284553
    15  C    6.305025   4.924962   4.129513   4.684233   6.944653
    16  C    7.691209   6.304511   5.525661   5.993542   8.342395
    17  H    5.715486   4.317894   3.806064   3.885045   6.534667
    18  C    7.069943   5.868557   4.631787   6.055243   7.258006
    19  C    8.331042   7.067851   5.911418   7.119008   8.605403
    20  H    7.125439   6.058854   4.713804   6.426575   7.102014
    21  C    8.601182   7.252496   6.283402   7.091985   9.083174
    22  H    8.176143   6.778492   6.182580   6.305521   8.961961
    23  H    9.658106   8.298119   7.360482   8.085965  10.165112
    24  H    9.225872   8.008680   6.788457   8.127948   9.394300
                    6          7          8          9         10
     6  H    0.000000
     7  C    3.872486   0.000000
     8  C    3.396233   1.398758   0.000000
     9  H    2.483159   3.404205   2.153894   0.000000
    10  H    4.959003   1.086750   2.143824   4.288184   0.000000
    11  H    4.296016   2.156824   1.086960   2.482437   2.461265
    12  N    4.557785   2.498019   3.763334   5.316967   2.770955
    13  N    5.619395   2.719653   4.115981   5.981646   2.474938
    14  C    6.786021   4.132822   5.528872   7.361883   3.811855
    15  C    7.026538   5.069770   6.419038   8.030783   4.970117
    16  C    8.382871   6.420041   7.786600   9.428759   6.226329
    17  H    6.318522   4.966820   6.221274   7.604383   5.102046
    18  C    8.009293   4.932141   6.312535   8.304333   4.328131
    19  C    9.223829   6.311723   7.698731   9.663087   5.725908
    20  H    8.133230   4.694649   6.005722   8.097060   3.898207
    21  C    9.387500   6.948644   8.346281  10.165438   6.542793
    22  H    8.761521   7.208329   8.536912  10.039481   7.123959
    23  H   10.420638   8.034866   9.432748  11.248322   7.612904
    24  H   10.156369   7.035140   8.393032  10.428566   6.330855
                   11         12         13         14         15
    11  H    0.000000
    12  N    4.649582   0.000000
    13  N    4.790002   1.246680   0.000000
    14  C    6.187542   2.228236   1.413170   0.000000
    15  C    7.209288   2.716709   2.497938   1.404360   0.000000
    16  C    8.539534   4.113019   3.763582   2.439883   1.398650
    17  H    7.120495   2.471159   2.770379   2.166752   1.086770
    18  C    6.789181   3.496759   2.402340   1.401610   2.404267
    19  C    8.187017   4.666726   3.701337   2.439751   2.785264
    20  H    6.320570   3.831762   2.598849   2.154470   3.392808
    21  C    8.969058   4.911338   4.230825   2.819844   2.417976
    22  H    9.355977   4.786297   4.649444   3.420571   2.156663
    23  H   10.047033   5.979294   5.317616   3.906854   3.403864
    24  H    8.775593   5.618786   4.559000   3.420034   3.872078
                   16         17         18         19         20
    16  C    0.000000
    17  H    2.143515   0.000000
    18  C    2.781905   3.398066   0.000000
    19  C    2.409561   3.871780   1.397860   0.000000
    20  H    3.869320   4.303701   1.087460   2.151211   0.000000
    21  C    1.392644   3.392801   2.415408   1.392340   3.396466
    22  H    1.086950   2.460727   3.868840   3.395917   4.956266
    23  H    2.153705   4.287697   3.401958   2.153781   4.294359
    24  H    3.396054   4.958610   2.156951   1.086830   2.473923
                   21         22         23         24
    21  C    0.000000
    22  H    2.153823   0.000000
    23  H    1.087010   2.482453   0.000000
    24  H    2.153768   4.295963   2.483123   0.000000
 Stoichiometry    C12H10N2
 Framework group  CS[SG(C12H10N2)]
 Deg. of freedom    45
 Full point group                 CS      NOp   2
 Largest Abelian subgroup         CS      NOp   2
 Largest concise Abelian subgroup C1      NOp   1
                         Standard orientation:                         
 ---------------------------------------------------------------------
 Center     Atomic      Atomic             Coordinates (Angstroms)
 Number     Number       Type             X           Y           Z
 ---------------------------------------------------------------------
      1          6           0       -2.602306    3.251214    0.000000
      2          6           0       -1.369248    2.593042    0.000000
      3          6           0       -1.291342    1.193549    0.000000
      4          1           0       -0.452437    3.177890    0.000000
      5          6           0       -3.782997    2.513390    0.000000
      6          1           0       -2.637591    4.337461    0.000000
      7          6           0       -2.493345    0.467663    0.000000
      8          6           0       -3.729804    1.121646    0.000000
      9          1           0       -4.743682    3.021992    0.000000
     10          1           0       -2.478329   -0.618983    0.000000
     11          1           0       -4.648910    0.541364    0.000000
     12          7           0        0.000000    0.620403    0.000000
     13          7           0       -0.003401   -0.626272    0.000000
     14          6           0        1.289475   -1.196817    0.000000
     15          6           0        2.489472   -0.467273    0.000000
     16          6           0        3.728051   -1.116998    0.000000
     17          1           0        2.471158    0.619343    0.000000
     18          6           0        1.371880   -2.596002    0.000000
     19          6           0        2.607292   -3.250044    0.000000
     20          1           0        0.457096   -3.183997    0.000000
     21          6           0        3.785701   -2.508448    0.000000
     22          1           0        4.645117   -0.533516    0.000000
     23          1           0        4.748082   -3.013833    0.000000
     24          1           0        2.646340   -4.336172    0.000000
 ---------------------------------------------------------------------
 Rotational constants (GHZ):      2.7583639      0.2918242      0.2639042
 Standard basis: 6-31G(d) (6D, 7F)
 There are   174 symmetry adapted basis functions of A'  symmetry.
 There are    56 symmetry adapted basis functions of A"  symmetry.
 Integral buffers will be    131072 words long.
 Raffenetti 2 integral format.
 Two-electron integral symmetry is turned on.
   230 basis functions,   432 primitive gaussians,   230 cartesian basis functions
    48 alpha electrons       48 beta electrons
       nuclear repulsion energy       750.0072168247 Hartrees.
 NAtoms=   24 NActive=   24 NUniq=   24 SFac= 1.00D+00 NAtFMM=   60 NAOKFM=F Big=F
 One-electron integrals computed using PRISM.
 NBasis=   230 RedAO= T  NBF=   174    56
 NBsUse=   230 1.00D-06 NBFU=   174    56
 Harris functional with IExCor=  402 diagonalized for initial guess.
 ExpMin= 1.61D-01 ExpMax= 4.17D+03 ExpMxC= 6.27D+02 IAcc=1 IRadAn=         1 AccDes= 0.00D+00
 HarFok:  IExCor=  402 AccDes= 0.00D+00 IRadAn=         1 IDoV= 1
 ScaDFX=  1.000000  1.000000  1.000000  1.000000
 FoFCou: FMM=F IPFlag=           0 FMFlag=      100000 FMFlg1=           0
         NFxFlg=           0 DoJE=T BraDBF=F KetDBF=T FulRan=T
         Omega=  0.000000  0.000000  1.000000  0.000000  0.000000 ICntrl=     500 IOpCl=  0
         NMat0=    1 NMatS0=    1 NMatT0=    0 NMatD0=    1 NMtDS0=    0 NMtDT0=    0
         I1Cent=           4 NGrid=           0.
 Petite list used in FoFCou.
 Initial guess orbital symmetries:
       Occupied  (A') (A') (A') (A') (A') (A') (A') (A') (A') (A')
                 (A') (A') (A') (A') (A') (A') (A') (A') (A') (A')
                 (A') (A') (A') (A') (A') (A') (A') (A') (A') (A')
                 (A') (A') (A') (A') (A') (A') (A") (A') (A") (A')
                 (A') (A') (A") (A") (A") (A") (A") (A')
       Virtual   (A") (A") (A") (A") (A") (A') (A') (A") (A") (A')
                 (A') (A') (A') (A') (A') (A') (A') (A') (A') (A')
                 (A') (A') (A') (A') (A') (A') (A') (A') (A') (A')
                 (A') (A') (A") (A") (A') (A') (A') (A') (A') (A')
                 (A') (A") (A') (A") (A") (A') (A') (A") (A') (A')
                 (A') (A") (A') (A") (A") (A") (A") (A") (A') (A')
                 (A') (A') (A') (A') (A') (A') (A") (A') (A') (A")
                 (A') (A') (A') (A') (A') (A') (A') (A') (A') (A')
                 (A') (A') (A') (A') (A') (A') (A') (A") (A') (A")
                 (A') (A") (A") (A') (A") (A") (A') (A') (A") (A")
                 (A") (A") (A') (A") (A") (A') (A') (A") (A') (A')
                 (A') (A') (A') (A') (A') (A') (A') (A") (A') (A')
                 (A') (A') (A') (A') (A") (A') (A') (A') (A') (A")
                 (A") (A') (A') (A') (A") (A") (A") (A") (A") (A")
                 (A') (A") (A') (A') (A") (A') (A") (A') (A') (A')
                 (A') (A") (A') (A') (A") (A') (A') (A') (A') (A')
                 (A') (A') (A') (A') (A') (A') (A') (A') (A') (A')
                 (A') (A') (A') (A') (A') (A') (A') (A') (A') (A')
                 (A') (A')
 The electronic state of the initial guess is 1-A'.
 Requested convergence on RMS density matrix=1.00D-08 within 128 cycles.
 Requested convergence on MAX density matrix=1.00D-06.
 Requested convergence on             energy=1.00D-06.
 No special actions if energy rises.
 Integral accuracy reduced to 1.0D-05 until final iterations.
 Initial convergence to 1.0D-05 achieved.  Increase integral accuracy.
 SCF Done:  E(RB3LYP) =  -572.760012910     A.U. after   15 cycles
             Convg  =    0.5702D-08             -V/T =  2.0096

 **********************************************************************

            Population analysis using the SCF density.

 **********************************************************************

 Orbital symmetries:
       Occupied  (A') (A') (A') (A') (A') (A') (A') (A') (A') (A')
                 (A') (A') (A') (A') (A') (A') (A') (A') (A') (A')
                 (A') (A') (A') (A') (A') (A') (A') (A') (A') (A')
                 (A') (A') (A") (A') (A') (A') (A') (A") (A') (A')
                 (A") (A') (A') (A") (A") (A") (A") (A')
       Virtual   (A") (A") (A") (A") (A") (A') (A') (A') (A') (A')
                 (A') (A") (A") (A') (A') (A') (A') (A') (A') (A')
                 (A') (A') (A') (A') (A') (A') (A') (A') (A') (A')
                 (A") (A") (A') (A') (A') (A') (A') (A') (A") (A")
                 (A') (A') (A") (A") (A') (A') (A') (A') (A') (A')
                 (A") (A") (A') (A") (A") (A') (A") (A") (A') (A')
                 (A') (A') (A") (A') (A') (A') (A') (A") (A') (A')
                 (A') (A') (A') (A') (A') (A') (A') (A') (A') (A')
                 (A') (A') (A') (A') (A') (A') (A') (A') (A") (A")
                 (A') (A") (A") (A') (A') (A') (A") (A") (A') (A")
                 (A") (A") (A") (A") (A") (A') (A') (A") (A') (A')
                 (A') (A') (A') (A') (A') (A') (A') (A") (A') (A')
                 (A') (A') (A') (A") (A') (A') (A') (A') (A') (A")
                 (A") (A') (A') (A') (A") (A") (A") (A") (A") (A")
                 (A') (A") (A') (A') (A") (A") (A') (A') (A') (A')
                 (A') (A") (A') (A") (A') (A') (A') (A') (A') (A')
                 (A') (A') (A') (A') (A') (A') (A') (A') (A') (A')
                 (A') (A') (A') (A') (A') (A') (A') (A') (A') (A')
                 (A') (A')
 The electronic state is 1-A'.
 Alpha  occ. eigenvalues --  -14.37503 -14.37452 -10.21719 -10.21715 -10.19618
 Alpha  occ. eigenvalues --  -10.19610 -10.19498 -10.19495 -10.19445 -10.19435
 Alpha  occ. eigenvalues --  -10.19417 -10.19413 -10.19213 -10.19201  -1.03710
 Alpha  occ. eigenvalues --   -0.86843  -0.85117  -0.79529  -0.74869  -0.74719
 Alpha  occ. eigenvalues --   -0.73966  -0.67819  -0.61631  -0.61132  -0.59641
 Alpha  occ. eigenvalues --   -0.56513  -0.52839  -0.50438  -0.48236  -0.46980
 Alpha  occ. eigenvalues --   -0.45114  -0.44375  -0.42999  -0.42838  -0.42344
 Alpha  occ. eigenvalues --   -0.42050  -0.39461  -0.37355  -0.36237  -0.35798
 Alpha  occ. eigenvalues --   -0.34848  -0.34423  -0.34324  -0.27434  -0.25295
 Alpha  occ. eigenvalues --   -0.25279  -0.22820  -0.22703
 Alpha virt. eigenvalues --   -0.07951  -0.00393  -0.00295   0.01118   0.04844
 Alpha virt. eigenvalues --    0.09377   0.09537   0.13790   0.14650   0.15456
 Alpha virt. eigenvalues --    0.16072   0.16417   0.17580   0.17880   0.18149
 Alpha virt. eigenvalues --    0.19042   0.19769   0.24137   0.25178   0.28314
 Alpha virt. eigenvalues --    0.28993   0.30308   0.30413   0.33016   0.34059
 Alpha virt. eigenvalues --    0.34271   0.36979   0.41416   0.48000   0.50294
 Alpha virt. eigenvalues --    0.51796   0.52127   0.52309   0.53115   0.54429
 Alpha virt. eigenvalues --    0.55060   0.55775   0.56677   0.58277   0.59137
 Alpha virt. eigenvalues --    0.59222   0.59352   0.59649   0.60310   0.60524
 Alpha virt. eigenvalues --    0.60679   0.61335   0.61365   0.62771   0.63361
 Alpha virt. eigenvalues --    0.64470   0.65594   0.66376   0.66653   0.67637
 Alpha virt. eigenvalues --    0.68695   0.75123   0.76534   0.77885   0.81361
 Alpha virt. eigenvalues --    0.82396   0.83465   0.83513   0.83668   0.83896
 Alpha virt. eigenvalues --    0.84118   0.84658   0.86040   0.86625   0.87802
 Alpha virt. eigenvalues --    0.90475   0.91728   0.94184   0.94416   0.95459
 Alpha virt. eigenvalues --    0.96308   0.99059   1.01406   1.04222   1.05081
 Alpha virt. eigenvalues --    1.09959   1.10544   1.13070   1.14877   1.16798
 Alpha virt. eigenvalues --    1.17885   1.20492   1.20875   1.24270   1.25473
 Alpha virt. eigenvalues --    1.28875   1.30595   1.34283   1.34721   1.40269
 Alpha virt. eigenvalues --    1.40702   1.42589   1.42718   1.46121   1.46766
 Alpha virt. eigenvalues --    1.47659   1.48970   1.49081   1.50910   1.51031
 Alpha virt. eigenvalues --    1.52781   1.57144   1.58084   1.67697   1.74290
 Alpha virt. eigenvalues --    1.77257   1.78423   1.81547   1.82174   1.82360
 Alpha virt. eigenvalues --    1.88591   1.88701   1.89297   1.91005   1.94981
 Alpha virt. eigenvalues --    1.97230   1.97565   1.97621   1.99268   2.00715
 Alpha virt. eigenvalues --    2.05685   2.06370   2.11963   2.12671   2.12831
 Alpha virt. eigenvalues --    2.13721   2.14491   2.14670   2.17913   2.20628
 Alpha virt. eigenvalues --    2.24704   2.25553   2.29785   2.30297   2.30306
 Alpha virt. eigenvalues --    2.33854   2.36283   2.40074   2.50542   2.51258
 Alpha virt. eigenvalues --    2.53281   2.54355   2.57110   2.58225   2.60270
 Alpha virt. eigenvalues --    2.62280   2.64855   2.69142   2.69177   2.72468
 Alpha virt. eigenvalues --    2.73364   2.74135   2.74535   2.75878   2.77595
 Alpha virt. eigenvalues --    2.84507   2.92895   2.93635   3.01103   3.13235
 Alpha virt. eigenvalues --    3.26660   3.40969   3.43199   3.89877   4.07006
 Alpha virt. eigenvalues --    4.08295   4.08719   4.10964   4.11178   4.14723
 Alpha virt. eigenvalues --    4.16354   4.32688   4.32737   4.36920   4.39597
 Alpha virt. eigenvalues --    4.69956   4.71219
          Condensed to atoms (all electrons):
              1          2          3          4          5          6
     1  C    4.873892   0.517879  -0.006025  -0.048155   0.544036   0.360389
     2  C    0.517879   5.007582   0.495727   0.342125  -0.030925  -0.039090
     3  C   -0.006025   0.495727   4.711708  -0.040581  -0.040597   0.003610
     4  H   -0.048155   0.342125  -0.040581   0.597778   0.005378  -0.006014
     5  C    0.544036  -0.030925  -0.040597   0.005378   4.855131  -0.043311
     6  H    0.360389  -0.039090   0.003610  -0.006014  -0.043311   0.589640
     7  C   -0.047618  -0.057028   0.418969   0.009825  -0.025993   0.000568
     8  C   -0.026020  -0.043767   0.007331  -0.000186   0.533358   0.004749
     9  H   -0.042936   0.004720   0.000516  -0.000157   0.359236  -0.005498
    10  H    0.000117   0.006825  -0.047348  -0.000091   0.005034   0.000014
    11  H    0.004570   0.000771   0.002759   0.000016  -0.043175  -0.000192
    12  N    0.005012  -0.064801   0.294657   0.000714  -0.000088  -0.000101
    13  N   -0.000223   0.006466  -0.083072   0.000030   0.000052   0.000001
    14  C    0.000005  -0.000469   0.005884  -0.000033   0.000001   0.000000
    15  C    0.000000  -0.000020   0.001514  -0.000030   0.000000   0.000000
    16  C    0.000000   0.000000  -0.000024   0.000000   0.000000   0.000000
    17  H    0.000000  -0.000063  -0.000064   0.000310   0.000000   0.000000
    18  C    0.000000   0.000015  -0.000469   0.000000   0.000000   0.000000
    19  C    0.000000   0.000000   0.000005   0.000000   0.000000   0.000000
    20  H    0.000000   0.000000  -0.000032   0.000000   0.000000   0.000000
    21  C    0.000000   0.000000   0.000001   0.000000   0.000000   0.000000
    22  H    0.000000   0.000000   0.000000   0.000000   0.000000   0.000000
    23  H    0.000000   0.000000   0.000000   0.000000   0.000000   0.000000
    24  H    0.000000   0.000000   0.000000   0.000000   0.000000   0.000000
              7          8          9         10         11         12
     1  C   -0.047618  -0.026020  -0.042936   0.000117   0.004570   0.005012
     2  C   -0.057028  -0.043767   0.004720   0.006825   0.000771  -0.064801
     3  C    0.418969   0.007331   0.000516  -0.047348   0.002759   0.294657
     4  H    0.009825  -0.000186  -0.000157  -0.000091   0.000016   0.000714
     5  C   -0.025993   0.533358   0.359236   0.005034  -0.043175  -0.000088
     6  H    0.000568   0.004749  -0.005498   0.000014  -0.000192  -0.000101
     7  C    5.096628   0.490395   0.004793   0.357008  -0.037382  -0.074591
     8  C    0.490395   4.904468  -0.043229  -0.051748   0.359529   0.005926
     9  H    0.004793  -0.043229   0.594171  -0.000153  -0.005343   0.000003
    10  H    0.357008  -0.051748  -0.000153   0.571721  -0.005125  -0.016294
    11  H   -0.037382   0.359529  -0.005343  -0.005125   0.587397  -0.000098
    12  N   -0.074591   0.005926   0.000003  -0.016294  -0.000098   6.975954
    13  N   -0.007985  -0.000179   0.000000   0.026716   0.000002   0.236181
    14  C    0.001497  -0.000024   0.000000  -0.000065   0.000000  -0.083348
    15  C    0.000138   0.000000   0.000000   0.000072   0.000000  -0.008140
    16  C    0.000000   0.000000   0.000000  -0.000001   0.000000  -0.000179
    17  H    0.000073  -0.000001   0.000000   0.000008   0.000000   0.026909
    18  C   -0.000021   0.000000   0.000000  -0.000061   0.000000   0.006477
    19  C    0.000000   0.000000   0.000000   0.000000   0.000000  -0.000224
    20  H   -0.000028   0.000000   0.000000   0.000299   0.000000   0.000034
    21  C    0.000000   0.000000   0.000000   0.000000   0.000000   0.000053
    22  H    0.000000   0.000000   0.000000   0.000000   0.000000   0.000002
    23  H    0.000000   0.000000   0.000000   0.000000   0.000000   0.000000
    24  H    0.000000   0.000000   0.000000   0.000000   0.000000   0.000001
             13         14         15         16         17         18
     1  C   -0.000223   0.000005   0.000000   0.000000   0.000000   0.000000
     2  C    0.006466  -0.000469  -0.000020   0.000000  -0.000063   0.000015
     3  C   -0.083072   0.005884   0.001514  -0.000024  -0.000064  -0.000469
     4  H    0.000030  -0.000033  -0.000030   0.000000   0.000310   0.000000
     5  C    0.000052   0.000001   0.000000   0.000000   0.000000   0.000000
     6  H    0.000001   0.000000   0.000000   0.000000   0.000000   0.000000
     7  C   -0.007985   0.001497   0.000138   0.000000   0.000073  -0.000021
     8  C   -0.000179  -0.000024   0.000000   0.000000  -0.000001   0.000000
     9  H    0.000000   0.000000   0.000000   0.000000   0.000000   0.000000
    10  H    0.026716  -0.000065   0.000072  -0.000001   0.000008  -0.000061
    11  H    0.000002   0.000000   0.000000   0.000000   0.000000   0.000000
    12  N    0.236181  -0.083348  -0.008140  -0.000179   0.026909   0.006477
    13  N    6.975753   0.294539  -0.074590   0.005924  -0.016334  -0.064749
    14  C    0.294539   4.712290   0.419287   0.007173  -0.047375   0.495504
    15  C   -0.074590   0.419287   5.096151   0.490537   0.356912  -0.056820
    16  C    0.005924   0.007173   0.490537   4.904448  -0.051773  -0.043742
    17  H   -0.016334  -0.047375   0.356912  -0.051773   0.571770   0.006833
    18  C   -0.064749   0.495504  -0.056820  -0.043742   0.006833   5.007654
    19  C    0.005005  -0.005908  -0.047726  -0.026015   0.000115   0.517785
    20  H    0.000688  -0.040613   0.009816  -0.000185  -0.000090   0.342202
    21  C   -0.000089  -0.040596  -0.025970   0.533322   0.005042  -0.030897
    22  H   -0.000098   0.002766  -0.037395   0.359536  -0.005137   0.000769
    23  H    0.000003   0.000515   0.004796  -0.043244  -0.000153   0.004719
    24  H   -0.000101   0.003607   0.000570   0.004749   0.000014  -0.039093
             19         20         21         22         23         24
     1  C    0.000000   0.000000   0.000000   0.000000   0.000000   0.000000
     2  C    0.000000   0.000000   0.000000   0.000000   0.000000   0.000000
     3  C    0.000005  -0.000032   0.000001   0.000000   0.000000   0.000000
     4  H    0.000000   0.000000   0.000000   0.000000   0.000000   0.000000
     5  C    0.000000   0.000000   0.000000   0.000000   0.000000   0.000000
     6  H    0.000000   0.000000   0.000000   0.000000   0.000000   0.000000
     7  C    0.000000  -0.000028   0.000000   0.000000   0.000000   0.000000
     8  C    0.000000   0.000000   0.000000   0.000000   0.000000   0.000000
     9  H    0.000000   0.000000   0.000000   0.000000   0.000000   0.000000
    10  H    0.000000   0.000299   0.000000   0.000000   0.000000   0.000000
    11  H    0.000000   0.000000   0.000000   0.000000   0.000000   0.000000
    12  N   -0.000224   0.000034   0.000053   0.000002   0.000000   0.000001
    13  N    0.005005   0.000688  -0.000089  -0.000098   0.000003  -0.000101
    14  C   -0.005908  -0.040613  -0.040596   0.002766   0.000515   0.003607
    15  C   -0.047726   0.009816  -0.025970  -0.037395   0.004796   0.000570
    16  C   -0.026015  -0.000185   0.533322   0.359536  -0.043244   0.004749
    17  H    0.000115  -0.000090   0.005042  -0.005137  -0.000153   0.000014
    18  C    0.517785   0.342202  -0.030897   0.000769   0.004719  -0.039093
    19  C    4.874019  -0.048180   0.544071   0.004572  -0.042931   0.360389
    20  H   -0.048180   0.597816   0.005374   0.000016  -0.000157  -0.006009
    21  C    0.544071   0.005374   4.855123  -0.043193   0.359222  -0.043310
    22  H    0.004572   0.000016  -0.043193   0.587463  -0.005344  -0.000192
    23  H   -0.042931  -0.000157   0.359222  -0.005344   0.594244  -0.005498
    24  H    0.360389  -0.006009  -0.043310  -0.000192  -0.005498   0.589683
 Mulliken atomic charges:
              1
     1  C   -0.134924
     2  C   -0.145947
     3  C    0.275533
     4  H    0.139070
     5  C   -0.118139
     6  H    0.135235
     7  C   -0.129249
     8  C   -0.140601
     9  H    0.133876
    10  H    0.153071
    11  H    0.136271
    12  N   -0.304062
    13  N   -0.303942
    14  C    0.275363
    15  C   -0.129101
    16  C   -0.140525
    17  H    0.153003
    18  C   -0.146105
    19  C   -0.134976
    20  H    0.139049
    21  C   -0.118153
    22  H    0.136234
    23  H    0.133827
    24  H    0.135192
 Sum of Mulliken atomic charges =   0.00000
 Mulliken charges with hydrogens summed into heavy atoms:
              1
     1  C    0.000311
     2  C   -0.006877
     3  C    0.275533
     5  C    0.015737
     7  C    0.023822
     8  C   -0.004331
    12  N   -0.304062
    13  N   -0.303942
    14  C    0.275363
    15  C    0.023902
    16  C   -0.004291
    18  C   -0.007056
    19  C    0.000215
    21  C    0.015674
 Sum of Mulliken charges with hydrogens summed into heavy atoms =   0.00000
 Electronic spatial extent (au):  <R**2>=           3922.8410
 Charge=              0.0000 electrons
 Dipole moment (field-independent basis, Debye):
    X=             -0.0024    Y=              0.0076    Z=              0.0000  Tot=              0.0080
 Quadrupole moment (field-independent basis, Debye-Ang):
   XX=            -65.5914   YY=            -68.8275   ZZ=            -84.7045
   XY=             -4.8682   XZ=              0.0000   YZ=              0.0000
 Traceless Quadrupole moment (field-independent basis, Debye-Ang):
   XX=              7.4497   YY=              4.2136   ZZ=            -11.6634
   XY=             -4.8682   XZ=              0.0000   YZ=              0.0000
 Octapole moment (field-independent basis, Debye-Ang**2):
  XXX=             -0.0530  YYY=              0.0551  ZZZ=              0.0000  XYY=             -0.0180
  XXY=              0.0390  XXZ=              0.0000  XZZ=             -0.0078  YZZ=             -0.0034
  YYZ=              0.0000  XYZ=              0.0000
 Hexadecapole moment (field-independent basis, Debye-Ang**3):
 XXXX=          -2900.9344 YYYY=          -1820.8119 ZZZZ=            -85.2536 XXXY=            853.8428
 XXXZ=              0.0000 YYYX=            860.8852 YYYZ=              0.0000 ZZZX=              0.0000
 ZZZY=              0.0000 XXYY=           -781.2260 XXZZ=           -618.5821 YYZZ=           -389.1785
 XXYZ=              0.0000 YYXZ=              0.0000 ZZXY=            361.7052
 N-N= 7.500072168247D+02 E-N=-2.828160885350D+03  KE= 5.673262316528D+02
 Symmetry A'   KE= 5.512488638130D+02
 Symmetry A"   KE= 1.607736783987D+01
 Calling FoFJK, ICntrl=      2127 FMM=F ISym2X=1 I1Cent= 0 IOpClX= 0 NMat=1 NMatS=1 NMatT=0.
 ***** Axes restored to original set *****
 -------------------------------------------------------------------
 Center     Atomic                   Forces (Hartrees/Bohr)
 Number     Number              X              Y              Z
 -------------------------------------------------------------------
      1        6          -0.000814372    0.000000000    0.004541308
      2        6          -0.007518200    0.000000000   -0.001108979
      3        6          -0.000600642    0.000000000   -0.012781155
      4        1           0.001871230    0.000000000    0.002120633
      5        6          -0.002058514    0.000000000   -0.005020475
      6        1           0.000008292    0.000000000    0.000796274
      7        6           0.010895940    0.000000000   -0.007003701
      8        6           0.000750564    0.000000000    0.009668855
      9        1          -0.000116683    0.000000000   -0.000077440
     10        1          -0.003272017    0.000000000    0.002592738
     11        1           0.000091131    0.000000000    0.000849816
     12        7          -0.014447644    0.000000000   -0.012598549
     13        7           0.014324228    0.000000000    0.012597188
     14        6           0.000525907    0.000000000    0.012874336
     15        6          -0.010911485    0.000000000    0.006865027
     16        6          -0.000720824    0.000000000   -0.009710796
     17        1           0.003324619    0.000000000   -0.002584316
     18        6           0.007487815    0.000000000    0.001165468
     19        6           0.000799679    0.000000000   -0.004530904
     20        1          -0.001850461    0.000000000   -0.002128108
     21        6           0.002161906    0.000000000    0.005046265
     22        1          -0.000085007    0.000000000   -0.000832833
     23        1           0.000151761    0.000000000    0.000079984
     24        1           0.000002777    0.000000000   -0.000820636
 -------------------------------------------------------------------
 Cartesian Forces:  Max     0.014447644 RMS     0.005075843

 GradGradGradGradGradGradGradGradGradGradGradGradGradGradGradGradGradGrad
 Berny optimization.
 Internal  Forces:  Max     0.021851788 RMS     0.003452254
 Search for a local minimum.
 Step number   1 out of a maximum of  126
 All quantities printed in internal units (Hartrees-Bohrs-Radians)
 Mixed Optimization -- RFO/linear search
 Second derivative matrix not updated -- first step.
 ITU=  0
     Eigenvalues ---    0.01518   0.01522   0.01953   0.01954   0.02056
     Eigenvalues ---    0.02057   0.02071   0.02072   0.02093   0.02093
     Eigenvalues ---    0.02115   0.02115   0.02142   0.02143   0.02154
     Eigenvalues ---    0.02155   0.02170   0.02170   0.02188   0.02188
     Eigenvalues ---    0.03323   0.16000   0.16000   0.16000   0.16000
     Eigenvalues ---    0.16000   0.16000   0.16000   0.16000   0.16000
     Eigenvalues ---    0.16000   0.22000   0.22000   0.22000   0.22000
     Eigenvalues ---    0.23468   0.23469   0.25000   0.25000   0.25000
     Eigenvalues ---    0.25000   0.35107   0.35108   0.35160   0.35160
     Eigenvalues ---    0.35166   0.35167   0.35182   0.35183   0.35189
     Eigenvalues ---    0.35191   0.41555   0.41562   0.41892   0.41894
     Eigenvalues ---    0.43506   0.43560   0.45297   0.45305   0.45913
     Eigenvalues ---    0.45917   0.46168   0.46170   0.46735   0.46737
     Eigenvalues ---    0.84476
 RFO step:  Lambda=-3.83706219D-03 EMin= 1.51756645D-02
 Linear search not attempted -- first point.
 Iteration  1 RMS(Cart)=  0.02138578 RMS(Int)=  0.00031060
 Iteration  2 RMS(Cart)=  0.00057569 RMS(Int)=  0.00000991
 Iteration  3 RMS(Cart)=  0.00000030 RMS(Int)=  0.00000991
 ClnCor:  largest displacement from symmetrization is 1.61D-10 for atom     6.
 Variable       Old X    -DE/DX   Delta X   Delta X   Delta X     New X
                                 (Linear)    (Quad)   (Total)
    R1        2.64131  -0.00398   0.00000  -0.00853  -0.00854   2.63277
    R2        2.63101   0.00373   0.00000   0.00817   0.00815   2.63916
    R3        2.05379  -0.00041   0.00000  -0.00114  -0.00114   2.05265
    R4        2.64875  -0.00010   0.00000  -0.00045  -0.00044   2.64831
    R5        2.05502  -0.00059   0.00000  -0.00167  -0.00167   2.05335
    R6        2.65352   0.00118   0.00000   0.00231   0.00233   2.65585
    R7        2.66984   0.00536   0.00000   0.01220   0.01220   2.68204
    R8        2.63193   0.00680   0.00000   0.01464   0.01463   2.64656
    R9        2.05415   0.00008   0.00000   0.00022   0.00022   2.05437
   R10        2.64327  -0.00680   0.00000  -0.01475  -0.01475   2.62852
   R11        2.05366  -0.00161   0.00000  -0.00453  -0.00453   2.04913
   R12        2.05406  -0.00034   0.00000  -0.00095  -0.00095   2.05311
   R13        2.35588   0.02185   0.00000   0.02575   0.02575   2.38163
   R14        2.67050   0.00535   0.00000   0.01219   0.01219   2.68269
   R15        2.65386   0.00106   0.00000   0.00205   0.00206   2.65592
   R16        2.64866  -0.00009   0.00000  -0.00046  -0.00045   2.64821
   R17        2.64307  -0.00672   0.00000  -0.01456  -0.01455   2.62851
   R18        2.05370  -0.00165   0.00000  -0.00463  -0.00463   2.04906
   R19        2.63172   0.00692   0.00000   0.01490   0.01489   2.64660
   R20        2.05404  -0.00033   0.00000  -0.00094  -0.00094   2.05310
   R21        2.64157  -0.00408   0.00000  -0.00877  -0.00877   2.63280
   R22        2.05500  -0.00058   0.00000  -0.00164  -0.00164   2.05336
   R23        2.63114   0.00362   0.00000   0.00794   0.00792   2.63906
   R24        2.05381  -0.00041   0.00000  -0.00116  -0.00116   2.05265
   R25        2.05415   0.00008   0.00000   0.00022   0.00022   2.05437
    A1        2.09276  -0.00054   0.00000  -0.00111  -0.00113   2.09163
    A2        2.09357  -0.00043   0.00000  -0.00372  -0.00371   2.08986
    A3        2.09686   0.00097   0.00000   0.00483   0.00484   2.10169
    A4        2.11671  -0.00298   0.00000  -0.01313  -0.01313   2.10358
    A5        2.08346   0.00433   0.00000   0.02391   0.02390   2.10736
    A6        2.08302  -0.00135   0.00000  -0.01077  -0.01078   2.07224
    A7        2.05847   0.00680   0.00000   0.02631   0.02634   2.08481
    A8        2.04412  -0.00687   0.00000  -0.02681  -0.02683   2.01730
    A9        2.18060   0.00006   0.00000   0.00050   0.00048   2.18108
   A10        2.09113  -0.00006   0.00000   0.00145   0.00142   2.09255
   A11        2.09616  -0.00009   0.00000  -0.00142  -0.00141   2.09475
   A12        2.09590   0.00014   0.00000  -0.00003  -0.00001   2.09589
   A13        2.11180  -0.00427   0.00000  -0.01918  -0.01916   2.09264
   A14        2.10026  -0.00182   0.00000  -0.01455  -0.01456   2.08570
   A15        2.07113   0.00609   0.00000   0.03373   0.03372   2.10484
   A16        2.09551   0.00104   0.00000   0.00566   0.00565   2.10116
   A17        2.09575   0.00029   0.00000   0.00210   0.00211   2.09786
   A18        2.09192  -0.00133   0.00000  -0.00776  -0.00776   2.08416
   A19        1.98578   0.00992   0.00000   0.03909   0.03909   2.02487
   A20        1.98366   0.01085   0.00000   0.04273   0.04273   2.02640
   A21        2.17975   0.00033   0.00000   0.00156   0.00155   2.18130
   A22        2.04522  -0.00717   0.00000  -0.02798  -0.02799   2.01722
   A23        2.05822   0.00683   0.00000   0.02642   0.02645   2.08466
   A24        2.11223  -0.00436   0.00000  -0.01956  -0.01954   2.09269
   A25        2.10019  -0.00180   0.00000  -0.01450  -0.01451   2.08568
   A26        2.07076   0.00616   0.00000   0.03406   0.03405   2.10481
   A27        2.09532   0.00108   0.00000   0.00589   0.00588   2.10120
   A28        2.09183  -0.00133   0.00000  -0.00778  -0.00777   2.08406
   A29        2.09604   0.00025   0.00000   0.00188   0.00189   2.09792
   A30        2.11652  -0.00290   0.00000  -0.01284  -0.01284   2.10369
   A31        2.08324  -0.00139   0.00000  -0.01088  -0.01088   2.07236
   A32        2.08342   0.00428   0.00000   0.02372   0.02372   2.10714
   A33        2.09299  -0.00057   0.00000  -0.00130  -0.00132   2.09167
   A34        2.09363  -0.00044   0.00000  -0.00378  -0.00377   2.08986
   A35        2.09656   0.00101   0.00000   0.00508   0.00509   2.10165
   A36        2.09109  -0.00008   0.00000   0.00140   0.00136   2.09245
   A37        2.09576   0.00019   0.00000   0.00022   0.00024   2.09600
   A38        2.09634  -0.00011   0.00000  -0.00162  -0.00160   2.09473
    D1        0.00000   0.00000   0.00000   0.00000   0.00000   0.00000
    D2        3.14159   0.00000   0.00000   0.00000   0.00000   3.14159
    D3        3.14159   0.00000   0.00000   0.00000   0.00000   3.14159
    D4        0.00000   0.00000   0.00000   0.00000   0.00000   0.00000
    D5        0.00000   0.00000   0.00000   0.00000   0.00000   0.00000
    D6        3.14159   0.00000   0.00000   0.00000   0.00000   3.14159
    D7        3.14159   0.00000   0.00000   0.00000   0.00000   3.14159
    D8        0.00000   0.00000   0.00000   0.00000   0.00000   0.00000
    D9        0.00000   0.00000   0.00000   0.00000   0.00000   0.00000
   D10        3.14159   0.00000   0.00000   0.00000   0.00000   3.14159
   D11        3.14159   0.00000   0.00000   0.00000   0.00000   3.14159
   D12        0.00000   0.00000   0.00000   0.00000   0.00000   0.00000
   D13        0.00000   0.00000   0.00000   0.00000   0.00000   0.00000
   D14        3.14159   0.00000   0.00000   0.00000   0.00000   3.14159
   D15        3.14159   0.00000   0.00000   0.00000   0.00000   3.14159
   D16        0.00000   0.00000   0.00000   0.00000   0.00000   0.00000
   D17        3.14159   0.00000   0.00000   0.00000   0.00000   3.14159
   D18        0.00000   0.00000   0.00000   0.00000   0.00000   0.00000
   D19        0.00000   0.00000   0.00000   0.00000   0.00000   0.00000
   D20        3.14159   0.00000   0.00000   0.00000   0.00000   3.14159
   D21        3.14159   0.00000   0.00000   0.00000   0.00000   3.14159
   D22        0.00000   0.00000   0.00000   0.00000   0.00000   0.00000
   D23        0.00000   0.00000   0.00000   0.00000   0.00000   0.00000
   D24        3.14159   0.00000   0.00000   0.00000   0.00000   3.14159
   D25        3.14159   0.00000   0.00000   0.00000   0.00000   3.14159
   D26        0.00000   0.00000   0.00000   0.00000   0.00000   0.00000
   D27        3.14159   0.00000   0.00000   0.00000   0.00000   3.14159
   D28        0.00000   0.00000   0.00000   0.00000   0.00000   0.00000
   D29        3.14159   0.00000   0.00000   0.00000   0.00000   3.14159
   D30        3.14159   0.00000   0.00000   0.00000   0.00000   3.14159
   D31        0.00000   0.00000   0.00000   0.00000   0.00000   0.00000
   D32        0.00000   0.00000   0.00000   0.00000   0.00000   0.00000
   D33        3.14159   0.00000   0.00000   0.00000   0.00000   3.14159
   D34        3.14159   0.00000   0.00000   0.00000   0.00000   3.14159
   D35        0.00000   0.00000   0.00000   0.00000   0.00000   0.00000
   D36        0.00000   0.00000   0.00000   0.00000   0.00000   0.00000
   D37        3.14159   0.00000   0.00000   0.00000   0.00000   3.14159
   D38        0.00000   0.00000   0.00000   0.00000   0.00000   0.00000
   D39        3.14159   0.00000   0.00000   0.00000   0.00000   3.14159
   D40        3.14159   0.00000   0.00000   0.00000   0.00000   3.14159
   D41        0.00000   0.00000   0.00000   0.00000   0.00000   0.00000
   D42        0.00000   0.00000   0.00000   0.00000   0.00000   0.00000
   D43        3.14159   0.00000   0.00000   0.00000   0.00000   3.14159
   D44        3.14159   0.00000   0.00000   0.00000   0.00000   3.14159
   D45        0.00000   0.00000   0.00000   0.00000   0.00000   0.00000
   D46        0.00000   0.00000   0.00000   0.00000   0.00000   0.00000
   D47        3.14159   0.00000   0.00000   0.00000   0.00000   3.14159
   D48        3.14159   0.00000   0.00000   0.00000   0.00000   3.14159
   D49        0.00000   0.00000   0.00000   0.00000   0.00000   0.00000
   D50        0.00000   0.00000   0.00000   0.00000   0.00000   0.00000
   D51        3.14159   0.00000   0.00000   0.00000   0.00000   3.14159
   D52        3.14159   0.00000   0.00000   0.00000   0.00000   3.14159
   D53        0.00000   0.00000   0.00000   0.00000   0.00000   0.00000
         Item               Value     Threshold  Converged?
 Maximum Force            0.021852     0.000450     NO 
 RMS     Force            0.003452     0.000300     NO 
 Maximum Displacement     0.066918     0.001800     NO 
 RMS     Displacement     0.021543     0.001200     NO 
 Predicted change in Energy=-1.945243D-03
 GradGradGradGradGradGradGradGradGradGradGradGradGradGradGradGradGradGrad

                          Input orientation:                          
 ---------------------------------------------------------------------
 Center     Atomic      Atomic             Coordinates (Angstroms)
 Number     Number       Type             X           Y           Z
 ---------------------------------------------------------------------
      1          6           0       -0.002387    0.000000   -0.009450
      2          6           0        0.003853    0.000000    1.383738
      3          6           0        1.214213    0.000000    2.090156
      4          1           0       -0.927537    0.000000    1.943364
      5          6           0        1.205891    0.000000   -0.709816
      6          1           0       -0.947934    0.000000   -0.544056
      7          6           0        2.427895    0.000000    1.381519
      8          6           0        2.418667    0.000000   -0.009404
      9          1           0        1.204410    0.000000   -1.796940
     10          1           0        3.364898    0.000000    1.927275
     11          1           0        3.361514    0.000000   -0.549245
     12          7           0        1.098238    0.000000    3.504684
     13          7           0        2.181875    0.000000    4.148194
     14          6           0        2.068031    0.000000    5.563242
     15          6           0        0.855554    0.000000    6.274012
     16          6           0        0.867130    0.000000    7.664914
     17          1           0       -0.082355    0.000000    5.729888
     18          6           0        3.279471    0.000000    6.267697
     19          6           0        3.288086    0.000000    7.660889
     20          1           0        4.210038    0.000000    5.706688
     21          6           0        2.081078    0.000000    8.363334
     22          1           0       -0.074859    0.000000    8.206248
     23          1           0        2.084472    0.000000    9.450457
     24          1           0        4.234543    0.000000    8.193886
 ---------------------------------------------------------------------
                    Distance matrix (angstroms):
                    1          2          3          4          5
     1  C    0.000000
     2  C    1.393203   0.000000
     3  C    2.426616   1.401427   0.000000
     4  H    2.160876   1.086585   2.146775   0.000000
     5  C    1.396584   2.414097   2.799984   3.404537   0.000000
     6  H    1.086214   2.149951   3.407925   2.487504   2.160193
     7  C    2.800191   2.424043   1.405414   3.402145   2.422184
     8  C    2.421054   2.787862   2.420508   3.874323   1.400501
     9  H    2.156729   3.399713   3.887108   4.305237   1.087125
    10  H    3.884523   3.404711   2.156844   4.292465   3.408161
    11  H    3.406935   3.874314   3.402548   4.960751   2.161595
    12  N    3.682460   2.386648   1.419274   2.557633   4.215874
    13  N    4.696489   3.519374   2.274179   3.811786   4.955079
    14  C    5.944874   4.661446   3.576497   4.698611   6.332025
    15  C    6.341763   4.963887   4.199201   4.683367   6.992610
    16  C    7.723466   6.340222   5.585553   5.996413   8.381579
    17  H    5.739896   4.347005   3.863773   3.879704   6.567295
    18  C    7.083303   5.880708   4.660165   6.033140   7.279109
    19  C    8.346335   7.084405   5.944242   7.103630   8.625789
    20  H    7.100617   6.031574   4.696197   6.368460   7.084943
    21  C    8.628114   7.282144   6.332789   7.089977   9.115262
    22  H    8.216018   6.822964   6.250463   6.320663   9.007581
    23  H    9.687354   8.330721   7.411571   8.088797  10.198188
    24  H    9.232892   8.017284   6.810133   8.106546   9.404713
                    6          7          8          9         10
     6  H    0.000000
     7  C    3.886394   0.000000
     8  C    3.408790   1.390954   0.000000
     9  H    2.490442   3.405807   2.160950   0.000000
    10  H    4.970714   1.084355   2.155477   4.305519   0.000000
    11  H    4.309451   2.144643   1.086456   2.491956   2.476522
    12  N    4.536421   2.505157   3.753977   5.302687   2.761515
    13  N    5.640294   2.777592   4.164336   6.024953   2.516352
    14  C    6.811397   4.197178   5.583666   7.410676   3.860326
    15  C    7.052561   5.138944   6.474924   8.078488   5.019057
    16  C    8.407238   6.474337   7.829587   9.467864   6.257743
    17  H    6.333372   5.020923   6.260558   7.636027   5.132585
    18  C    8.016916   4.959831   6.335849   8.327320   4.341263
    19  C    9.233904   6.338013   7.719409   9.684639   5.734128
    20  H    8.104102   4.677939   5.990219   8.083207   3.872754
    21  C    9.408321   6.990424   8.379541  10.198025   6.562854
    22  H    8.793752   7.269161   8.585721  10.084657   7.159429
    23  H   10.444413   8.076243   9.465763  11.281775   7.631367
    24  H   10.159217   7.047859   8.401867  10.440225   6.326665
                   11         12         13         14         15
    11  H    0.000000
    12  N    4.642925   0.000000
    13  N    4.843292   1.260307   0.000000
    14  C    6.247847   2.275557   1.419620   0.000000
    15  C    7.268884   2.779942   2.505639   1.405452   0.000000
    16  C    8.584542   4.166645   3.754447   2.420577   1.390950
    17  H    7.161546   2.518995   2.761973   2.156834   1.084318
    18  C    6.817436   3.520230   2.386841   1.401372   2.423925
    19  C    8.210462   4.697816   3.682761   2.426655   2.800114
    20  H    6.313215   3.812101   2.557802   2.146805   3.402120
    21  C    9.004087   4.957061   4.216345   2.800123   2.422225
    22  H    9.405706   4.845706   4.643344   3.402566   2.144575
    23  H   10.080916   6.027012   5.303157   3.887250   3.405883
    24  H    8.786609   5.641367   4.536636   3.407941   3.886320
                   16         17         18         19         20
    16  C    0.000000
    17  H    2.155423   0.000000
    18  C    2.787760   3.404573   0.000000
    19  C    2.420960   3.884409   1.393218   0.000000
    20  H    3.874233   4.292456   1.086594   2.160763   0.000000
    21  C    1.400521   3.408149   2.414092   1.396531   3.404444
    22  H    1.086455   2.476371   3.874211   3.406878   4.960659
    23  H    2.161038   4.305551   3.399703   2.156674   4.305094
    24  H    3.408707   4.970603   2.149968   1.086217   2.487318
                   21         22         23         24
    21  C    0.000000
    22  H    2.161652   0.000000
    23  H    1.087128   2.492141   0.000000
    24  H    2.160122   4.309420   2.490337   0.000000
 Stoichiometry    C12H10N2
 Framework group  CS[SG(C12H10N2)]
 Deg. of freedom    45
 Full point group                 CS      NOp   2
 Largest Abelian subgroup         CS      NOp   2
 Largest concise Abelian subgroup C1      NOp   1
                         Standard orientation:                         
 ---------------------------------------------------------------------
 Center     Atomic      Atomic             Coordinates (Angstroms)
 Number     Number       Type             X           Y           Z
 ---------------------------------------------------------------------
      1          6           0       -2.454594    3.375651    0.000000
      2          6           0       -1.260777    2.657448    0.000000
      3          6           0       -1.273126    1.256076    0.000000
      4          1           0       -0.303398    3.171348    0.000000
      5          6           0       -3.674568    2.695863    0.000000
      6          1           0       -2.430121    4.461589    0.000000
      7          6           0       -2.502971    0.575878    0.000000
      8          6           0       -3.693313    1.295488    0.000000
      9          1           0       -4.607853    3.253375    0.000000
     10          1           0       -2.513493   -0.508426    0.000000
     11          1           0       -4.639555    0.761621    0.000000
     12          7           0        0.001558    0.631961    0.000000
     13          7           0        0.000000   -0.628344    0.000000
     14          6           0        1.274040   -1.254556    0.000000
     15          6           0        2.505103   -0.576485    0.000000
     16          6           0        3.694225   -1.298101    0.000000
     17          1           0        2.517490    0.507762    0.000000
     18          6           0        1.259453   -2.655853    0.000000
     19          6           0        2.452058   -3.376096    0.000000
     20          1           0        0.301306   -3.168337    0.000000
     21          6           0        3.673169   -2.698464    0.000000
     22          1           0        4.641311   -0.765736    0.000000
     23          1           0        4.605475   -3.257619    0.000000
     24          1           0        2.425736   -4.461994    0.000000
 ---------------------------------------------------------------------
 Rotational constants (GHZ):      2.7382780      0.2891175      0.2615067
 Standard basis: 6-31G(d) (6D, 7F)
 There are   174 symmetry adapted basis functions of A'  symmetry.
 There are    56 symmetry adapted basis functions of A"  symmetry.
 Integral buffers will be    131072 words long.
 Raffenetti 2 integral format.
 Two-electron integral symmetry is turned on.
   230 basis functions,   432 primitive gaussians,   230 cartesian basis functions
    48 alpha electrons       48 beta electrons
       nuclear repulsion energy       747.7431019807 Hartrees.
 NAtoms=   24 NActive=   24 NUniq=   24 SFac= 1.00D+00 NAtFMM=   60 NAOKFM=F Big=F
 One-electron integrals computed using PRISM.
 NBasis=   230 RedAO= T  NBF=   174    56
 NBsUse=   230 1.00D-06 NBFU=   174    56
 Initial guess read from the read-write file.
 B after Tr=     0.000000    0.000000    0.000000
         Rot=    1.000000    0.000000    0.000000    0.000000 Ang=   0.00 deg.
 Initial guess orbital symmetries:
       Occupied  (A') (A') (A') (A') (A') (A') (A') (A') (A') (A')
                 (A') (A') (A') (A') (A') (A') (A') (A') (A') (A')
                 (A') (A') (A') (A') (A') (A') (A') (A') (A') (A')
                 (A') (A') (A") (A') (A') (A') (A') (A") (A') (A')
                 (A") (A') (A') (A") (A") (A") (A") (A')
       Virtual   (A") (A") (A") (A") (A") (A') (A') (A') (A') (A')
                 (A') (A") (A") (A') (A') (A') (A') (A') (A') (A')
                 (A') (A') (A') (A') (A') (A') (A') (A') (A') (A')
                 (A") (A") (A') (A') (A') (A') (A') (A') (A") (A")
                 (A') (A') (A") (A") (A') (A') (A') (A') (A') (A')
                 (A") (A") (A') (A") (A") (A') (A") (A") (A') (A')
                 (A') (A') (A") (A') (A') (A') (A') (A") (A') (A')
                 (A') (A') (A') (A') (A') (A') (A') (A') (A') (A')
                 (A') (A') (A') (A') (A') (A') (A') (A') (A") (A")
                 (A') (A") (A") (A') (A') (A') (A") (A") (A') (A")
                 (A") (A") (A") (A") (A") (A') (A') (A") (A') (A')
                 (A') (A') (A') (A') (A') (A') (A') (A") (A') (A')
                 (A') (A') (A') (A") (A') (A') (A') (A') (A') (A")
                 (A") (A') (A') (A') (A") (A") (A") (A") (A") (A")
                 (A') (A") (A') (A') (A") (A") (A') (A') (A') (A')
                 (A') (A") (A') (A") (A') (A') (A') (A') (A') (A')
                 (A') (A') (A') (A') (A') (A') (A') (A') (A') (A')
                 (A') (A') (A') (A') (A') (A') (A') (A') (A') (A')
                 (A') (A')
 Harris functional with IExCor=  402 diagonalized for initial guess.
 ExpMin= 1.61D-01 ExpMax= 4.17D+03 ExpMxC= 6.27D+02 IAcc=1 IRadAn=         1 AccDes= 0.00D+00
 HarFok:  IExCor=  402 AccDes= 0.00D+00 IRadAn=         1 IDoV= 1
 ScaDFX=  1.000000  1.000000  1.000000  1.000000
 FoFCou: FMM=F IPFlag=           0 FMFlag=      100000 FMFlg1=           0
         NFxFlg=           0 DoJE=T BraDBF=F KetDBF=T FulRan=T
         Omega=  0.000000  0.000000  1.000000  0.000000  0.000000 ICntrl=     500 IOpCl=  0
         NMat0=    1 NMatS0=    1 NMatT0=    0 NMatD0=    1 NMtDS0=    0 NMtDT0=    0
         I1Cent=           4 NGrid=           0.
 Petite list used in FoFCou.
 Requested convergence on RMS density matrix=1.00D-08 within 128 cycles.
 Requested convergence on MAX density matrix=1.00D-06.
 Requested convergence on             energy=1.00D-06.
 No special actions if energy rises.
 Integral accuracy reduced to 1.0D-05 until final iterations.
 Initial convergence to 1.0D-05 achieved.  Increase integral accuracy.
 SCF Done:  E(RB3LYP) =  -572.761665758     A.U. after   12 cycles
             Convg  =    0.5287D-08             -V/T =  2.0098
 Calling FoFJK, ICntrl=      2127 FMM=F ISym2X=1 I1Cent= 0 IOpClX= 0 NMat=1 NMatS=1 NMatT=0.
 ***** Axes restored to original set *****
 -------------------------------------------------------------------
 Center     Atomic                   Forces (Hartrees/Bohr)
 Number     Number              X              Y              Z
 -------------------------------------------------------------------
      1        6           0.001261177    0.000000000   -0.000130178
      2        6          -0.002191448    0.000000000    0.000835812
      3        6           0.002963453    0.000000000    0.001149712
      4        1           0.001064054    0.000000000    0.000896640
      5        6          -0.000494578    0.000000000   -0.000432602
      6        1           0.000093903    0.000000000   -0.000382935
      7        6           0.001915597    0.000000000   -0.000963141
      8        6          -0.000800328    0.000000000    0.001221393
      9        1           0.000174478    0.000000000    0.000238396
     10        1          -0.000730724    0.000000000    0.001482021
     11        1          -0.000084246    0.000000000   -0.000654717
     12        7          -0.004800114    0.000000000    0.005577769
     13        7           0.004962124    0.000000000   -0.005198746
     14        6          -0.003146655    0.000000000   -0.001417835
     15        6          -0.001867650    0.000000000    0.000902181
     16        6           0.000784918    0.000000000   -0.001206943
     17        1           0.000687918    0.000000000   -0.001503196
     18        6           0.002263894    0.000000000   -0.000841116
     19        6          -0.001239633    0.000000000    0.000114785
     20        1          -0.001077795    0.000000000   -0.000907280
     21        6           0.000450397    0.000000000    0.000424148
     22        1           0.000088140    0.000000000    0.000662741
     23        1          -0.000185771    0.000000000   -0.000242088
     24        1          -0.000091111    0.000000000    0.000375180
 -------------------------------------------------------------------
 Cartesian Forces:  Max     0.005577769 RMS     0.001522879

 GradGradGradGradGradGradGradGradGradGradGradGradGradGradGradGradGradGrad
 Berny optimization.
 Using GEDIIS/GDIIS optimizer.
 Internal  Forces:  Max     0.010366067 RMS     0.001530621
 Search for a local minimum.
 Step number   2 out of a maximum of  126
 All quantities printed in internal units (Hartrees-Bohrs-Radians)
 Mixed Optimization -- RFO/linear search
 Update second derivatives using D2CorX and points    1    2
 DE= -1.65D-03 DEPred=-1.95D-03 R= 8.50D-01
 SS=  1.41D+00  RLast= 1.18D-01 DXNew= 5.0454D-01 3.5340D-01
 Trust test= 8.50D-01 RLast= 1.18D-01 DXMaxT set to 3.53D-01
 ITU=  1  0
 Use linear search instead of GDIIS.
     Eigenvalues ---    0.01518   0.01522   0.01955   0.01957   0.02056
     Eigenvalues ---    0.02057   0.02072   0.02073   0.02093   0.02094
     Eigenvalues ---    0.02116   0.02116   0.02143   0.02144   0.02154
     Eigenvalues ---    0.02155   0.02170   0.02170   0.02188   0.02188
     Eigenvalues ---    0.03323   0.13021   0.16000   0.16000   0.16000
     Eigenvalues ---    0.16000   0.16000   0.16000   0.16000   0.16000
     Eigenvalues ---    0.16070   0.20824   0.22000   0.22000   0.22004
     Eigenvalues ---    0.22119   0.23478   0.24880   0.25000   0.25000
     Eigenvalues ---    0.34235   0.35083   0.35107   0.35159   0.35160
     Eigenvalues ---    0.35166   0.35168   0.35182   0.35183   0.35190
     Eigenvalues ---    0.35612   0.41459   0.41636   0.41733   0.41821
     Eigenvalues ---    0.43532   0.44328   0.45295   0.45318   0.45914
     Eigenvalues ---    0.46048   0.46172   0.46692   0.46736   0.49987
     Eigenvalues ---    0.88155
 RFO step:  Lambda=-7.72482134D-04 EMin= 1.51756645D-02
 Quartic linear search produced a step of -0.11997.
 Iteration  1 RMS(Cart)=  0.02105578 RMS(Int)=  0.00007691
 Iteration  2 RMS(Cart)=  0.00013161 RMS(Int)=  0.00000113
 Iteration  3 RMS(Cart)=  0.00000000 RMS(Int)=  0.00000113
 ClnCor:  largest displacement from symmetrization is 3.52D-10 for atom    17.
 Variable       Old X    -DE/DX   Delta X   Delta X   Delta X     New X
                                 (Linear)    (Quad)   (Total)
    R1        2.63277   0.00055   0.00102  -0.00165  -0.00063   2.63214
    R2        2.63916  -0.00018  -0.00098   0.00228   0.00130   2.64046
    R3        2.05265   0.00011   0.00014  -0.00010   0.00004   2.05268
    R4        2.64831  -0.00059   0.00005  -0.00124  -0.00119   2.64712
    R5        2.05335  -0.00045   0.00020  -0.00166  -0.00146   2.05189
    R6        2.65585  -0.00029  -0.00028   0.00019  -0.00009   2.65576
    R7        2.68204  -0.00299  -0.00146  -0.00212  -0.00358   2.67846
    R8        2.64656   0.00015  -0.00175   0.00494   0.00318   2.64974
    R9        2.05437  -0.00024  -0.00003  -0.00053  -0.00055   2.05382
   R10        2.62852  -0.00041   0.00177  -0.00555  -0.00378   2.62474
   R11        2.04913   0.00011   0.00054  -0.00117  -0.00062   2.04851
   R12        2.05311   0.00025   0.00011   0.00032   0.00044   2.05354
   R13        2.38163  -0.00311  -0.00309   0.00502   0.00193   2.38357
   R14        2.68269  -0.00336  -0.00146  -0.00287  -0.00433   2.67836
   R15        2.65592  -0.00033  -0.00025   0.00002  -0.00023   2.65569
   R16        2.64821  -0.00058   0.00005  -0.00122  -0.00117   2.64704
   R17        2.62851  -0.00041   0.00175  -0.00549  -0.00375   2.62477
   R18        2.04906   0.00016   0.00056  -0.00109  -0.00053   2.04853
   R19        2.64660   0.00014  -0.00179   0.00500   0.00321   2.64981
   R20        2.05310   0.00025   0.00011   0.00033   0.00045   2.05355
   R21        2.63280   0.00054   0.00105  -0.00174  -0.00069   2.63211
   R22        2.05336  -0.00045   0.00020  -0.00166  -0.00146   2.05190
   R23        2.63906  -0.00012  -0.00095   0.00231   0.00136   2.64042
   R24        2.05265   0.00010   0.00014  -0.00011   0.00003   2.05268
   R25        2.05437  -0.00024  -0.00003  -0.00053  -0.00056   2.05381
    A1        2.09163   0.00012   0.00014   0.00034   0.00047   2.09210
    A2        2.08986   0.00033   0.00044   0.00059   0.00104   2.09090
    A3        2.10169  -0.00045  -0.00058  -0.00093  -0.00151   2.10018
    A4        2.10358  -0.00121   0.00157  -0.00873  -0.00715   2.09643
    A5        2.10736   0.00196  -0.00287   0.01731   0.01444   2.12180
    A6        2.07224  -0.00075   0.00129  -0.00859  -0.00729   2.06495
    A7        2.08481   0.00166  -0.00316   0.01448   0.01132   2.09613
    A8        2.01730  -0.00057   0.00322  -0.01071  -0.00749   2.00980
[...]
     13          7           0        0.000000   -0.630189    0.000000
     14          6           0        1.287569   -1.225576    0.000000
     15          6           0        2.500275   -0.514461    0.000000
     16          6           0        3.703747   -1.209618    0.000000
     17          1           0        2.471009    0.569357    0.000000
     18          6           0        1.300328   -2.626787    0.000000
     19          6           0        2.510801   -3.317879    0.000000
     20          1           0        0.348322   -3.149001    0.000000
     21          6           0        3.714220   -2.610576    0.000000
     22          1           0        4.642584   -0.661863    0.000000
     23          1           0        4.660047   -3.145700    0.000000
     24          1           0        2.515401   -4.404355    0.000000
 ---------------------------------------------------------------------
 Rotational constants (GHZ):      2.7319198      0.2917693      0.2636151

 **********************************************************************

            Population analysis using the SCF density.

 **********************************************************************

 Orbital symmetries:
       Occupied  (A') (A') (A') (A') (A') (A') (A') (A') (A') (A')
                 (A') (A') (A') (A') (A') (A') (A') (A') (A') (A')
                 (A') (A') (A') (A') (A') (A') (A') (A') (A') (A')
                 (A') (A') (A') (A') (A") (A') (A') (A") (A') (A')
                 (A") (A') (A') (A") (A") (A") (A") (A')
       Virtual   (A") (A") (A") (A") (A") (A') (A') (A') (A') (A')
                 (A') (A") (A") (A') (A') (A') (A') (A') (A') (A')
                 (A') (A') (A') (A') (A') (A') (A') (A') (A') (A')
                 (A") (A") (A') (A') (A') (A') (A') (A') (A") (A')
                 (A') (A") (A") (A") (A') (A') (A') (A') (A') (A')
                 (A") (A") (A') (A") (A") (A') (A") (A") (A') (A')
                 (A') (A") (A') (A') (A') (A') (A') (A") (A') (A')
                 (A') (A') (A') (A') (A') (A') (A') (A') (A') (A')
                 (A') (A') (A') (A') (A') (A') (A') (A') (A") (A")
                 (A') (A") (A") (A') (A') (A') (A") (A") (A') (A")
                 (A") (A") (A") (A") (A") (A') (A') (A") (A') (A')
                 (A') (A') (A') (A') (A') (A') (A') (A") (A') (A')
                 (A') (A') (A') (A") (A') (A') (A') (A') (A') (A")
                 (A') (A') (A") (A') (A") (A") (A") (A") (A") (A")
                 (A') (A") (A') (A') (A") (A") (A') (A') (A') (A')
                 (A') (A") (A") (A') (A') (A') (A') (A') (A') (A')
                 (A') (A') (A') (A') (A') (A') (A') (A') (A') (A')
                 (A') (A') (A') (A') (A') (A') (A') (A') (A') (A')
                 (A') (A')
 The electronic state is 1-A'.
 Alpha  occ. eigenvalues --  -14.37406 -14.37361 -10.21688 -10.21688 -10.19764
 Alpha  occ. eigenvalues --  -10.19764 -10.19530 -10.19529 -10.19511 -10.19510
 Alpha  occ. eigenvalues --  -10.19423 -10.19423 -10.19195 -10.19194  -1.02593
 Alpha  occ. eigenvalues --   -0.86854  -0.85113  -0.79338  -0.75023  -0.74950
 Alpha  occ. eigenvalues --   -0.73874  -0.67601  -0.61689  -0.61189  -0.59641
 Alpha  occ. eigenvalues --   -0.56376  -0.52796  -0.50437  -0.48184  -0.46798
 Alpha  occ. eigenvalues --   -0.45079  -0.44233  -0.42660  -0.42622  -0.42496
 Alpha  occ. eigenvalues --   -0.42417  -0.39344  -0.37380  -0.36332  -0.35990
 Alpha  occ. eigenvalues --   -0.34725  -0.34462  -0.34334  -0.27292  -0.25504
 Alpha  occ. eigenvalues --   -0.25484  -0.22647  -0.22483
 Alpha virt. eigenvalues --   -0.07974  -0.00367  -0.00268   0.01003   0.04719
 Alpha virt. eigenvalues --    0.09437   0.09610   0.13725   0.14706   0.15562
 Alpha virt. eigenvalues --    0.16274   0.16339   0.17453   0.17756   0.17926
 Alpha virt. eigenvalues --    0.18892   0.19788   0.24230   0.25396   0.27984
 Alpha virt. eigenvalues --    0.28644   0.30121   0.30130   0.33033   0.34058
 Alpha virt. eigenvalues --    0.34120   0.36837   0.41030   0.47813   0.50019
 Alpha virt. eigenvalues --    0.51782   0.52092   0.52095   0.52993   0.54723
 Alpha virt. eigenvalues --    0.54723   0.55480   0.56900   0.58380   0.58738
 Alpha virt. eigenvalues --    0.58849   0.59077   0.59578   0.60349   0.60429
 Alpha virt. eigenvalues --    0.60862   0.61299   0.61354   0.62477   0.63548
 Alpha virt. eigenvalues --    0.64505   0.65615   0.65902   0.66635   0.67590
 Alpha virt. eigenvalues --    0.68496   0.75113   0.76336   0.78654   0.80861
 Alpha virt. eigenvalues --    0.82862   0.83133   0.83219   0.83535   0.83793
 Alpha virt. eigenvalues --    0.84224   0.84965   0.86152   0.87046   0.88296
 Alpha virt. eigenvalues --    0.90437   0.91565   0.94113   0.94413   0.95299
 Alpha virt. eigenvalues --    0.96574   0.98969   1.01761   1.03846   1.05044
 Alpha virt. eigenvalues --    1.09969   1.10137   1.13406   1.15059   1.16222
 Alpha virt. eigenvalues --    1.17201   1.20099   1.21072   1.24218   1.25459
 Alpha virt. eigenvalues --    1.28603   1.31175   1.33990   1.34414   1.39839
 Alpha virt. eigenvalues --    1.40371   1.42810   1.43036   1.45688   1.46639
 Alpha virt. eigenvalues --    1.47399   1.48715   1.48813   1.50554   1.50579
 Alpha virt. eigenvalues --    1.52428   1.55423   1.58193   1.68071   1.74674
 Alpha virt. eigenvalues --    1.77143   1.78807   1.81237   1.82552   1.82664
 Alpha virt. eigenvalues --    1.88246   1.88841   1.89722   1.91860   1.94485
 Alpha virt. eigenvalues --    1.96478   1.97430   1.97441   1.99125   1.99970
 Alpha virt. eigenvalues --    2.06032   2.06956   2.11141   2.12673   2.13786
 Alpha virt. eigenvalues --    2.13977   2.14359   2.14543   2.17805   2.19619
 Alpha virt. eigenvalues --    2.24102   2.25333   2.29739   2.30522   2.30604
 Alpha virt. eigenvalues --    2.32985   2.35331   2.37935   2.49306   2.50074
 Alpha virt. eigenvalues --    2.52774   2.54157   2.57708   2.58187   2.59544
 Alpha virt. eigenvalues --    2.62486   2.64810   2.69012   2.69513   2.72587
 Alpha virt. eigenvalues --    2.72636   2.73343   2.74402   2.74791   2.77273
 Alpha virt. eigenvalues --    2.83830   2.93694   2.93840   3.00627   3.13092
 Alpha virt. eigenvalues --    3.26118   3.41017   3.43222   3.87583   4.05443
 Alpha virt. eigenvalues --    4.08203   4.08508   4.11269   4.11489   4.14297
 Alpha virt. eigenvalues --    4.15667   4.32493   4.32575   4.36913   4.39467
 Alpha virt. eigenvalues --    4.69521   4.71055
          Condensed to atoms (all electrons):
              1          2          3          4          5          6
     1  C    4.877882   0.515045  -0.007151  -0.047294   0.543262   0.359746
     2  C    0.515045   5.003688   0.503083   0.340595  -0.032584  -0.039462
     3  C   -0.007151   0.503083   4.700427  -0.039739  -0.040536   0.003628
     4  H   -0.047294   0.340595  -0.039739   0.593841   0.005119  -0.005617
     5  C    0.543262  -0.032584  -0.040536   0.005119   4.859713  -0.042799
     6  H    0.359746  -0.039462   0.003628  -0.005617  -0.042799   0.589529
     7  C   -0.045991  -0.060010   0.428376   0.009813  -0.027644   0.000594
     8  C   -0.023350  -0.043802   0.009795  -0.000283   0.530200   0.004620
     9  H   -0.042837   0.004684   0.000427  -0.000146   0.360587  -0.005439
    10  H    0.000041   0.006861  -0.047102  -0.000082   0.004706   0.000014
    11  H    0.004438   0.000835   0.002671   0.000017  -0.042497  -0.000184
    12  N    0.005156  -0.064780   0.288932   0.001918  -0.000007  -0.000111
    13  N   -0.000226   0.006255  -0.077565   0.000006   0.000054   0.000001
    14  C    0.000005  -0.000460   0.005597  -0.000038   0.000001   0.000000
    15  C    0.000000  -0.000014   0.001339  -0.000042   0.000000   0.000000
    16  C    0.000000   0.000000  -0.000020  -0.000001   0.000000   0.000000
    17  H    0.000000  -0.000093  -0.000113   0.000384   0.000000   0.000000
    18  C    0.000000   0.000014  -0.000460   0.000001   0.000000   0.000000
    19  C    0.000000   0.000000   0.000005   0.000000   0.000000   0.000000
    20  H    0.000000   0.000001  -0.000038   0.000000   0.000000   0.000000
    21  C    0.000000   0.000000   0.000001   0.000000   0.000000   0.000000
    22  H    0.000000   0.000000   0.000000   0.000000   0.000000   0.000000
    23  H    0.000000   0.000000   0.000000   0.000000   0.000000   0.000000
    24  H    0.000000   0.000000   0.000000   0.000000   0.000000   0.000000
              7          8          9         10         11         12
     1  C   -0.045991  -0.023350  -0.042837   0.000041   0.004438   0.005156
     2  C   -0.060010  -0.043802   0.004684   0.006861   0.000835  -0.064780
     3  C    0.428376   0.009795   0.000427  -0.047102   0.002671   0.288932
     4  H    0.009813  -0.000283  -0.000146  -0.000082   0.000017   0.001918
     5  C   -0.027644   0.530200   0.360587   0.004706  -0.042497  -0.000007
     6  H    0.000594   0.004620  -0.005439   0.000014  -0.000184  -0.000111
     7  C    5.084401   0.488438   0.004792   0.355906  -0.037736  -0.070099
     8  C    0.488438   4.910656  -0.042979  -0.051477   0.358315   0.006172
     9  H    0.004792  -0.042979   0.591736  -0.000135  -0.005283   0.000003
    10  H    0.355906  -0.051477  -0.000135   0.569254  -0.004660  -0.017317
    11  H   -0.037736   0.358315  -0.005283  -0.004660   0.588108  -0.000108
    12  N   -0.070099   0.006172   0.000003  -0.017317  -0.000108   6.979433
    13  N   -0.009438  -0.000220   0.000000   0.028261   0.000004   0.230186
    14  C    0.001340  -0.000020   0.000000  -0.000113   0.000000  -0.077543
    15  C    0.000102   0.000000   0.000000   0.000075   0.000000  -0.009428
    16  C    0.000000   0.000000   0.000000  -0.000001   0.000000  -0.000220
    17  H    0.000075  -0.000001   0.000000   0.000009   0.000000   0.028247
    18  C   -0.000014   0.000000   0.000000  -0.000093   0.000000   0.006253
    19  C    0.000000   0.000000   0.000000   0.000000   0.000000  -0.000226
    20  H   -0.000043  -0.000001   0.000000   0.000384   0.000000   0.000006
    21  C    0.000000   0.000000   0.000000   0.000000   0.000000   0.000054
    22  H    0.000000   0.000000   0.000000   0.000000   0.000000   0.000004
    23  H    0.000000   0.000000   0.000000   0.000000   0.000000   0.000000
    24  H    0.000000   0.000000   0.000000   0.000000   0.000000   0.000001
             13         14         15         16         17         18
     1  C   -0.000226   0.000005   0.000000   0.000000   0.000000   0.000000
     2  C    0.006255  -0.000460  -0.000014   0.000000  -0.000093   0.000014
     3  C   -0.077565   0.005597   0.001339  -0.000020  -0.000113  -0.000460
     4  H    0.000006  -0.000038  -0.000042  -0.000001   0.000384   0.000001
     5  C    0.000054   0.000001   0.000000   0.000000   0.000000   0.000000
     6  H    0.000001   0.000000   0.000000   0.000000   0.000000   0.000000
     7  C   -0.009438   0.001340   0.000102   0.000000   0.000075  -0.000014
     8  C   -0.000220  -0.000020   0.000000   0.000000  -0.000001   0.000000
     9  H    0.000000   0.000000   0.000000   0.000000   0.000000   0.000000
    10  H    0.028261  -0.000113   0.000075  -0.000001   0.000009  -0.000093
    11  H    0.000004   0.000000   0.000000   0.000000   0.000000   0.000000
    12  N    0.230186  -0.077543  -0.009428  -0.000220   0.028247   0.006253
    13  N    6.979461   0.288924  -0.070090   0.006172  -0.017314  -0.064778
    14  C    0.288924   4.700410   0.428359   0.009800  -0.047101   0.503098
    15  C   -0.070090   0.428359   5.084408   0.488442   0.355913  -0.060016
    16  C    0.006172   0.009800   0.488442   4.910645  -0.051477  -0.043803
    17  H   -0.017314  -0.047101   0.355913  -0.051477   0.569259   0.006861
    18  C   -0.064778   0.503098  -0.060016  -0.043803   0.006861   5.003676
    19  C    0.005156  -0.007158  -0.045986  -0.023352   0.000041   0.515047
    20  H    0.001919  -0.039740   0.009813  -0.000283  -0.000082   0.340592
    21  C   -0.000007  -0.040535  -0.027645   0.530202   0.004706  -0.032584
    22  H   -0.000108   0.002671  -0.037736   0.358315  -0.004660   0.000835
    23  H    0.000003   0.000427   0.004791  -0.042978  -0.000135   0.004684
    24  H   -0.000111   0.003628   0.000594   0.004620   0.000014  -0.039462
             19         20         21         22         23         24
     1  C    0.000000   0.000000   0.000000   0.000000   0.000000   0.000000
     2  C    0.000000   0.000001   0.000000   0.000000   0.000000   0.000000
     3  C    0.000005  -0.000038   0.000001   0.000000   0.000000   0.000000
     4  H    0.000000   0.000000   0.000000   0.000000   0.000000   0.000000
     5  C    0.000000   0.000000   0.000000   0.000000   0.000000   0.000000
     6  H    0.000000   0.000000   0.000000   0.000000   0.000000   0.000000
     7  C    0.000000  -0.000043   0.000000   0.000000   0.000000   0.000000
     8  C    0.000000  -0.000001   0.000000   0.000000   0.000000   0.000000
     9  H    0.000000   0.000000   0.000000   0.000000   0.000000   0.000000
    10  H    0.000000   0.000384   0.000000   0.000000   0.000000   0.000000
    11  H    0.000000   0.000000   0.000000   0.000000   0.000000   0.000000
    12  N   -0.000226   0.000006   0.000054   0.000004   0.000000   0.000001
    13  N    0.005156   0.001919  -0.000007  -0.000108   0.000003  -0.000111
    14  C   -0.007158  -0.039740  -0.040535   0.002671   0.000427   0.003628
    15  C   -0.045986   0.009813  -0.027645  -0.037736   0.004791   0.000594
    16  C   -0.023352  -0.000283   0.530202   0.358315  -0.042978   0.004620
    17  H    0.000041  -0.000082   0.004706  -0.004660  -0.000135   0.000014
    18  C    0.515047   0.340592  -0.032584   0.000835   0.004684  -0.039462
    19  C    4.877879  -0.047292   0.543262   0.004438  -0.042836   0.359747
    20  H   -0.047292   0.593841   0.005119   0.000017  -0.000146  -0.005617
    21  C    0.543262   0.005119   4.859710  -0.042497   0.360587  -0.042799
    22  H    0.004438   0.000017  -0.042497   0.588106  -0.005283  -0.000184
    23  H   -0.042836  -0.000146   0.360587  -0.005283   0.591732  -0.005439
    24  H    0.359747  -0.005617  -0.042799  -0.000184  -0.005439   0.589527
 Mulliken atomic charges:
              1
     1  C   -0.138725
     2  C   -0.139857
     3  C    0.268443
     4  H    0.141549
     5  C   -0.117573
     6  H    0.135478
     7  C   -0.122863
     8  C   -0.146063
     9  H    0.134592
    10  H    0.155469
    11  H    0.136082
    12  N   -0.306525
    13  N   -0.306543
    14  C    0.268448
    15  C   -0.122879
    16  C   -0.146059
    17  H    0.155469
    18  C   -0.139852
    19  C   -0.138723
    20  H    0.141548
    21  C   -0.117573
    22  H    0.136083
    23  H    0.134595
    24  H    0.135480
 Sum of Mulliken atomic charges =   0.00000
 Mulliken charges with hydrogens summed into heavy atoms:
              1
     1  C   -0.003247
     2  C    0.001691
     3  C    0.268443
     5  C    0.017019
     7  C    0.032606
     8  C   -0.009981
    12  N   -0.306525
    13  N   -0.306543
    14  C    0.268448
    15  C    0.032590
    16  C   -0.009976
    18  C    0.001697
    19  C   -0.003243
    21  C    0.017022
 Sum of Mulliken charges with hydrogens summed into heavy atoms =   0.00000
 Electronic spatial extent (au):  <R**2>=           3925.3264
 Charge=              0.0000 electrons
 Dipole moment (field-independent basis, Debye):
    X=              0.0001    Y=             -0.0004    Z=              0.0000  Tot=              0.0004
 Quadrupole moment (field-independent basis, Debye-Ang):
   XX=            -65.8025   YY=            -68.5033   ZZ=            -84.7385
   XY=             -4.9909   XZ=              0.0000   YZ=              0.0000
 Traceless Quadrupole moment (field-independent basis, Debye-Ang):
   XX=              7.2123   YY=              4.5115   ZZ=            -11.7237
   XY=             -4.9909   XZ=              0.0000   YZ=              0.0000
 Octapole moment (field-independent basis, Debye-Ang**2):
  XXX=              0.0031  YYY=             -0.0025  ZZZ=              0.0000  XYY=              0.0008
  XXY=             -0.0021  XXZ=              0.0000  XZZ=              0.0003  YZZ=              0.0004
  YYZ=              0.0000  XYZ=              0.0000
 Hexadecapole moment (field-independent basis, Debye-Ang**3):
 XXXX=          -2821.0641 YYYY=          -1908.5667 ZZZZ=            -85.3007 XXXY=            863.9657
 XXXZ=              0.0000 YYYX=            871.3707 YYYZ=              0.0000 ZZZX=              0.0000
 ZZZY=              0.0000 XXYY=           -780.6693 XXZZ=           -601.1022 YYZZ=           -407.3515
 XXYZ=              0.0000 YYXZ=              0.0000 ZZXY=            366.5492
 N-N= 7.492145982884D+02 E-N=-2.826547458049D+03  KE= 5.672562868160D+02
 Symmetry A'   KE= 5.511899095932D+02
 Symmetry A"   KE= 1.606637722283D+01
 B after Tr=    -0.005967    0.000000    0.002965
         Rot=    1.000000    0.000000   -0.000483    0.000000 Ang=   0.06 deg.
 Final structure in terms of initial Z-matrix:
 C
 C,1,B1
 C,2,B2,1,A2
 H,2,B3,1,A3,3,D3,0
 C,1,B4,2,A4,3,D4,0
 H,1,B5,2,A5,3,D5,0
 C,3,B6,2,A6,1,D6,0
 C,5,B7,1,A7,2,D7,0
 H,5,B8,1,A8,2,D8,0
 H,7,B9,3,A9,2,D9,0
 H,8,B10,5,A10,1,D10,0
 N,3,B11,2,A11,1,D11,0
 N,12,B12,3,A12,2,D12,0
 C,13,B13,12,A13,3,D13,0
 C,14,B14,13,A14,12,D14,0
 C,15,B15,14,A15,13,D15,0
 H,15,B16,14,A16,13,D16,0
 C,14,B17,13,A17,12,D17,0
 C,18,B18,14,A18,13,D18,0
 H,18,B19,14,A19,13,D19,0
 C,19,B20,18,A20,14,D20,0
 H,16,B21,15,A21,14,D21,0
 H,21,B22,19,A22,18,D22,0
 H,19,B23,18,A23,14,D23,0
      Variables:
 B1=1.39385859
 B2=1.40126675
 A2=120.24422083
 B3=1.08582905
 A3=121.53081087
 D3=180.
 B4=1.3958901
 A4=119.83223994
 D4=0.
 B5=1.08648516
 A5=119.96585902
 D5=180.
 B6=1.40582103
 A6=119.86607679
 D6=0.
 B7=1.40099687
 A7=120.01659337
 D7=0.
 B8=1.08671277
 A8=120.05514485
 D8=180.
 B9=1.08421763
 A9=118.84018714
 D9=180.
 B10=1.08694568
 A10=119.83303806
 D10=180.
 B11=1.41854093
 A11=115.33884886
 D11=180.
 B12=1.26074629
 A12=114.80048307
 D12=180.
 B13=1.41856275
 A13=114.80914722
 D13=180.
 B14=1.40582444
 A14=124.7967847
 D14=0.
 B15=1.38981586
 A15=119.60128956
 D15=180.
 B16=1.08421301
 A16=118.84004223
 D16=0.
 B17=1.40126858
 A17=115.33806788
 D17=180.
 B18=1.39386251
 A18=120.24489904
 D18=180.
 B19=1.0858281
 A19=118.2248944
 D19=0.
 B20=1.39588555
 A20=119.83216404
 D20=0.
 B21=1.08694551
 A21=119.72711608
 D21=180.
 B22=1.08671302
 A22=120.05535083
 D22=180.
 B23=1.08648546
 A23=119.96584006
 D23=180.
 1\1\GINC-N2D1-9\FOpt\RB3LYP\6-31G(d)\C12H10N2\ROOT\17-Oct-2019\0\\#n B
 3LYP/6-31G(d) Opt\\Azo\\0,1\C,0.0009622457,0.,0.0031674829\C,0.0038880
 599,0.,1.3970230046\C,1.2159020903,0.,2.1002800726\H,-0.9204341975,0.,
 1.9668063837\C,1.2104166405,0.,-0.693775306\H,-0.9414220986,0.,-0.5375
 373868\C,2.4332564761,0.,1.3971577026\C,2.4233375816,0.,0.0073773355\H
 ,1.2123633198,0.,-1.7804863319\H,3.3611488096,0.,1.9579996377\H,3.3633
 668842,0.,-0.5383293813\N,1.0975691605,0.,3.5138767906\N,2.1939382887,
 0.,4.136336387\C,2.0758173044,0.,5.5499727285\C,0.8585872977,0.,6.2533
 172194\C,0.8687521805,0.,7.6430959028\H,-0.0694012063,0.,5.6926433441\
 C,3.2879488296,0.,6.2530309048\C,3.2911209268,0.,7.6468898069\H,4.2121
 755972,0.,5.6830944703\C,2.0817927089,0.,8.3440424037\H,-0.0711806829,
 0.,8.188968364\H,2.0800326889,0.,9.4307539939\H,4.2336012305,0.,8.1874
 280002\\Version=EM64L-G09RevC.01\State=1-A'\HF=-572.7620196\RMSD=3.286
 e-09\RMSF=3.319e-05\Dipole=0.0001164,0.,0.0001034\Quadrupole=0.6570472
 ,-8.7163041,8.0592569,0.,1.0385451,0.\PG=CS [SG(C12H10N2)]\\@


 GETTING A SIMPLE ANSWER FROM A PROFESSOR IS LIKE
 GETTING A THIMBLE OF WATER FROM A FIRE HYDRANT.
     -- PROF. LEN SHAPIRO, NDSU
 Job cpu time:  0 days  0 hours 10 minutes 55.3 seconds.
 File lengths (MBytes):  RWF=     72 Int=      0 D2E=      0 Chk=      5 Scr=      1
 Normal termination of Gaussian 09 at Thu Oct 17 02:11:35 2019.
